
Create H   file=/home/lars/adf2016.101/atomicdata/DZP/H
xc
  lda
End
End Input

 *******************************************************************************
 *                                                                             *
 *  -------------------------------------                                      *
 *   Amsterdam Density Functional  (ADF)         2016                          *
 *  -------------------------------------                                      *
 *                                               r51252 2016-03-08             *
 *                                                                             *
 *                                                                             *
 *                              =================                              *
 *                              |               |                              *
 *                              |     A D F     |                              *
 *                              |               |                              *
 *                              =================                              *
 *                                                                             *
 *                                                                             *
 *   Online information and documentation:  http://www.scm.com                 *
 *   E-mail:  support@scm.com   info@scm.com                                   *
 *                                                                             *
 *   Scientific publications using ADF results must be properly referenced     *
 *   See the User Manuals (or the web site) for recommended citations          *
 *   The terms and conditions of the End User License Agreement apply to       *
 *   the use of ADF, http://www.scm.com/Sales/LicAgreement.html                *
 *                                                                             *
 **********************  x86_64_linux_intel / intelmpi  ************************
 
 Licensed to: Dr. Rob van Nieuwpoort / eScience Center / Amsterdam / NL
 SCM User ID: u17149
  
 ADF 2016  RunTime: Feb28-2017 09:14:04  Nodes: 1  Procs: 1

 Temporary files are created in /tmp/kid_0.jy3nfy

 Hydrogen (DZP)



 ===========================
 A T T A C H E D   F I L E S
 ===========================
  
 CREATE - Data File:    /home/lars/adf2016.101/atomicdata/DZP/H
                        Hydrogen (DZP)



 ===============================
 M O D E L   P A R A M E T E R S
 ===============================
  
 DENSITY FUNCTIONAL POTENTIAL (scf)
    LDA:                               VWN                                      
    Gradient Corrections:              ---                                      

 SPIN  (restricted / unrestr.)
    Molecule:                          Restricted                               

 OTHER ASPECTS
    Relativistic Corrections:          ---                                      

    Nuclear Charge Density Model:      Point Charge Nuclei                                                                                                                                                                                     
    Core Treatment:                    Frozen Orbital(s)                        

    Hyperfine or Zeeman Interaction:   ---                                      



 =====================================
 S Y M M E T R Y ,   E L E C T R O N S
 =====================================
  
 Symmetry: ATOM

 Irreducible Representations, including subspecies
 -------------------------------------------------
 S
 P:x  P:y  P:z
 D:z2  D:x2-y2  D:xy  D:xz  D:yz
 F:z3  F:z  F:xyz  F:z2x  F:z2y  F:x  F:y


 Configuration of Valence Electrons
 ==================================

          Occupation Numbers
          -------------------------------------------------
 S        1
 P        0
 D        0
 F        0
          -------------------------------------------------

 Total:   1

 Net Charge: 0 (Nuclei minus Electrons)

 Preset values for MO occupations will be applied through SCF cycle no. 1000000
 Thereafter, the program will assign electrons to MOs that are spatially
 similar to the occupied MOs in a "reference" cycle ("KeepOrbitals").
 The reference cycle is always the PREVIOUS cycle: it will evolve with
 the SCF procedure.



 ================================
 (Slater-type)  F U N C T I O N S  ***  (Basis and Fit)  ***
 ================================
  

 Atom Type    1  (H)
 ==============

 Valence Basis Sets:   3
 -----------------------
   1 S    0.760000
   1 S    1.280000
   2 P    1.250000


 BAS: List of all Elementary Cartesian Basis Functions
 =====================================================

 The numbering in the list below (to the right of the function characteristics) is referred
 to in print-outs of MO eigenvectors and Mulliken populations in the BAS representation
 (as contrasted to the SFO representation).

 Notes:
 1. The functions are characterized by a polynomial prefactor (powers of x,y,z and r) and
    an exponential decay factor alpha.
 2. Since the basis sets are specific for an atom TYPE, the individual functions occur on
    all atoms of that type.
 3. The word 'Core' in the left margin signals that it is a Core Function (CF) : not a
    degree of freedom in the valence set, but only used to ensure orthogonalization of
    the other valence basis functions on the frozen Core Orbitals.


 (power of) X  Y  Z  R     Alpha  on Atom
            ==========     =====     ==========

 H                                    1
                                  ---------------------------------------------------------------------------
            0  0  0  0     0.760      1
            0  0  0  0     1.280      2
            1  0  0  0     1.250      3
            0  1  0  0     1.250      4
            0  0  1  0     1.250      5

 Total number of charge fitting functions (nprimf)        50
 Total number of Cartesian basis functions (naos)          5
 Total number of Cartesian core functions  (ncos)          0



 BAS: List of all Elementary Cartesian Basis Functions
 =====================================================

 The numbering in the list below (to the right of the function characteristics) is referred
 to in print-outs of MO eigenvectors and Mulliken populations in the BAS representation
 (as contrasted to the SFO representation).

 Notes:
 1. The functions are characterized by a polynomial prefactor (powers of x,y,z and r) and
    an exponential decay factor alpha.
 2. Since the basis sets are specific for an atom TYPE, the individual functions occur on
    all atoms of that type.
 3. The word 'Core' in the left margin signals that it is a Core Function (CF) : not a
    degree of freedom in the valence set, but only used to ensure orthogonalization of
    the other valence basis functions on the frozen Core Orbitals.


 (power of) X  Y  Z  R     Alpha  on Atom
            ==========     =====     ==========

 H                                    1
                                  ---------------------------------------------------------------------------
            0  0  0  0     0.760      1
            0  0  0  0     1.280      2
            1  0  0  0     1.250      3
            0  1  0  0     1.250      4
            0  0  1  0     1.250      5
1
 ***************************************************************************************************



                                              ***********************
                                              *  T E C H N I C A L  *
                                              ***********************
  



 =============================================================
 P A R A L L E L I Z A T I O N  and  V E C T O R I Z A T I O N
 =============================================================
  
 Nr of parallel processes:                                1
 Maximum vector length in NumInt loops:                 128

 IO buffersize (Mb):                                     64.000000



 =====================
 S C F   U P D A T E S
 =====================
  
 Max. nr. of cycles:                               300
 Convergence criterion:                              0.0000000100
   secondary criterion:                              0.0000000100

 Mix parameter (when DIIS does not apply):           0.2000000000
 Special mix parameter for the first cycle:          1.0000000000
 Mixed ADIIS+DIIS will be used
    Max number of expansion vectors:                10
    Pure ADIIS when Max([F,P]) is above              0.1000000000
    Pure DIIS when Max([F,P]) is below               0.0010000000
 Automatic ElectronSmearing (in case of problematic SCF convergence) disabled



 =================
 P R E C I S I O N  ***  (General: NumInt, NeglectFunctionTails, ...)  ***
 =================
  

 NumInt:           Target precision:                12.0000000000
 -------           Initial precision:               10.0000000000
                   Min. precision (optimization):   10.0000000000

 Neglect Functions:          Basis functions:        0.1000000000E-13
 ------------------          Fit functions:          0.1000000000E-13



 ===========================
 L I N E A R   S C A L I N G
 ===========================
  

 Cut-off radii density fit:                        0.1000000000E-97
 Overlap cut-off criterion AO matrix elements:     0.1000000000E-97
 Cut-offs for Coulomb potential and fitted density:0.1000000000E-97
 Cut-off criterion for Coulomb multipole terms:    0.1000000000E-97
 Progressive Convergence parameter:                 0.000000000    
1
 ***************************************************************************************************



                                            ***************************
                                            *  C O M P U T A T I O N  *
                                            ***************************
  

 Number of elements of the density matrix on this node (used, total):        15        15



 ===========================================
 Numerical Integration : Fuzzy Cells (Becke)
 ===========================================
  
 Becke grid quality: VERYGOOD       
  
 Lebedev angular grid order:             min:  13 max:  41
 Nr. of radial points:                   min:  64 max:  64

 Total nr. of points:         64
 Nr. of blocks:                1
 Block length:                64
 Nr. of dummy points:          0


 Test of Precision of the Numerical Integration Grid
 ===================================================

 Integral of the Total Core Density:                   0.00000000000000



 ========================
 Density Fitting (zlmFit)
 ========================
  
 ZlmFit Fit Quality: VERYGOOD       
  
 Max L-expansion:                        min:   0 max:   0
 Nr. of radial interpolation points:     min: 120 max: 120



 =====
 S C F  ***  ScaSCF  ***
 =====
  

 CYCLE    1
 SCF Error: norm([F,P])=      0.000000000000, max([F,P])=      0.000000000000
 orbitals (Q,E):
 ---------------
 S :1...2            ( 1.00    -0.4983)  ( 0.00     0.1718)
 P :1...1            ( 0.00     0.1562)

 CYCLE    2
 SCF Error: norm([F,P])=      0.048210423939, max([F,P])=      0.048210423939
 orbitals (Q,E):
 ---------------
 S :1...2            ( 1.00    -0.2168)  ( 0.00     0.4195)
 P :1...1            ( 0.00     0.4168)

 CYCLE    3
  SDIIS (wt  0.000):  0.1490  0.8510
 A-DIIS (wt  1.000):  0.0000  1.0000
  DIIS coefficients:  0.0000  1.0000
 SCF Error: norm([F,P])=      0.008443956902, max([F,P])=      0.008443956902
 orbitals (Q,E):
 ---------------
 S :1...2            ( 1.00    -0.2375)  ( 0.00     0.4001)
 P :1...1            ( 0.00     0.3997)

 CYCLE    4
  SDIIS (wt  0.996):  0.1442  0.8558
 A-DIIS (wt  0.004):  0.0000  1.0000
  DIIS coefficients:  0.1436  0.8564
 SCF Error: norm([F,P])=      0.001423321792, max([F,P])=      0.001423321792
 orbitals (Q,E):
 ---------------
 S :1...2            ( 1.00    -0.2344)  ( 0.00     0.4029)
 P :1...1            ( 0.00     0.4022)

 CYCLE    5
  SDIIS (wt  1.000):  0.0018  0.9982
  DIIS coefficients:  0.0018  0.9982
 SCF Error: norm([F,P])=      0.000002538735, max([F,P])=      0.000002538735
 orbitals (Q,E):
 ---------------
 S :1...2            ( 1.00    -0.2344)  ( 0.00     0.4029)
 P :1...1            ( 0.00     0.4022)

 CYCLE    6
  SDIIS (wt  1.000): -0.0002  1.0002
  DIIS coefficients: -0.0002  1.0002
 SCF Error: norm([F,P])=      0.000000000445, max([F,P])=      0.000000000445
 orbitals (Q,E):
 ---------------
 S :1...2            ( 1.00    -0.2344)  ( 0.00     0.4029)
 P :1...1            ( 0.00     0.4022)

 SCF CONVERGED

 CYCLE    7
1
 ***************************************************************************************************



                                                *******************
                                                *  R E S U L T S  *
                                                *******************
  
 *** Setting up for NEW gradients in Focky
 *** Using FIT density in Focky

 Orbital Energies, per Irrep and Spin:
 ======================================
                        Occup              E (au)              E (eV)       Diff (eV) with prev. cycle
                        -----      --------------------        ------       --------------------------
 S
               1        1.000     -0.23441710465432E+00        -6.379              -7.55E-15
               2        0.000      0.40291872172070E+00        10.964
 P
               1        0.000      0.40223463399148E+00        10.945


 Partially Occupied:
               1 S                -0.23441710465432E+00
  
 LUMO :        1 P                 0.40223463399148E+00
  


 Orbital Energies, all Irreps
 ========================================

 Irrep        no.  (spin)   Occup              E (au)                E (eV)
 ---------------------------------------------------------------------------
 S             1             1.00       -0.23441710465432E+00        -6.3788
 P             1             0.00        0.40223463399148E+00        10.9454
 S             2             0.00        0.40291872172070E+00        10.9640


 All Electron Calculation, thus no Orbital Energies of the Core Orbitals are calculated



 =======================================
 M U L L I K E N   P O P U L A T I O N S
 =======================================
  
 The survey below gives for each atom:
 a) the total charge (Z minus electrons)
 b) the net spin polarization (nr of electrons spin-A minus spin-B)
 c) for each spin the atomic electron valence density (integrated) per L-value.

 Atom              Charge    Spin density          S         P         D         F
 ----              ------    ------------       ------    ------    ------    ------
 1 H               0.0000                       1.0000    0.0000    0.0000    0.0000

 Populations of individual BAS functions
 ----------------------------------------
 1 H            0.6931  0.3069  0.0000  0.0000  0.0000

 Gross Charges per Atom (Z minus electrons)
 ==========================================
             0.0000
 Net Total:  0.00000000



 =======================================================================
 Electrostatic potential at the Nuclei due to electrons and other nuclei
 =======================================================================
  
         Atom                  Potential
         ----                  ---------
     1)   H                   0.91958212
 
 
 ========================
 No memory problems found
 ========================
 
 Maximum number of active allocate calls:         303
 
 *******************************************************************************

                             A D F   E X I T
 NORMAL TERMINATION



 =================
 Timing Statistics
 =================
  
 Total Used :                     CPU=        0.22      System=        0.04     Elapsed=        0.26

 Calls  Section                     ( Mean, Percentage )
 ---------------------------------------------------------------------------------------------------
     3  ><      ................      0.00    0.00             0.00    0.01             0.00    0.23
     1  INIT    ................      0.01    2.76             0.01   22.58             0.01    5.49
     1  GEOMET  ................      0.01    2.52             0.00    0.45             0.01    1.92
     1  INPUTA  ................      0.00    0.70             0.00    0.00             0.00    0.47
     1  MAINSY  ................      0.00    0.45             0.00    7.91             0.00    1.46
     1  SYMFIT  ................      0.00    0.00             0.00    0.00             0.00    0.09
     1  CORORT  ................      0.00    0.00             0.00    0.00             0.00    0.06
     1  SYMORB  ................      0.00    0.00             0.00    1.73             0.00    0.13
     1  CLSMAT  ................      0.00    0.74             0.00    0.00             0.00    0.59
     1  ORTHON  ................      0.00    0.25             0.00    0.00             0.00    0.26
     1  GENPT   ................      0.00    2.12             0.00    0.00             0.00    1.88
     1  PTBAS   ................      0.00    0.36             0.00    1.07             0.00    0.45
     7  FOCKY   ................      0.02   78.85             0.00   35.42             0.03   73.57
     7  FOCKTR  ................      0.00    1.03             0.00    9.49             0.00    0.98
     7  SDIIS   ................      0.00    1.70             0.00    0.00             0.00    2.11
     1  COREPS  ................      0.00    2.24             0.00   11.01             0.01    4.50
     1  POPAN   ................      0.00    0.57             0.00    0.56             0.00    0.55
     1  DEBYE   ................      0.00    0.10             0.00    0.10             0.00    0.10
     1  EXIT PROCEDURE .........      0.01    5.61             0.00    9.66             0.01    5.15


 Currently Open Files (EXIT00)
 ====================

 Unit    Access Format  Status   Type       Ident (file)
 -------------------------------------------------------
   3      SEQ    FORM   TRANSP  NORMAL      LOGFILE
                                          ( logfile )


 Buffered I/O statistics
 =======================
 Memory available:                     67108864
 Number of records fitting in memory:     16131
 Input :   1.0% of                         1497  *4k bytes
 Output:  12.4% of                         1085  *4k bytes
 Records from serial files evicted:           0
                    others evicted:           0
 Hash table lookups:       7138 with          0 conflicts (  0.00%)

 ***************************************************************************************************
 (LOGFILE)
 <Feb28-2017> <09:14:04>  ADF 2016  RunTime: Feb28-2017 09:14:04  Nodes: 1  Procs: 1
 <Feb28-2017> <09:14:04>  Hydrogen (DZP)
 <Feb28-2017> <09:14:04>  RunType   : CREATE
 <Feb28-2017> <09:14:04>  Net Charge: 0 (Nuclei minus Electrons)
 <Feb28-2017> <09:14:04>  Symmetry  : ATOM
  Coordinates
    Atom         X           Y           Z   (Angstrom)
    1.H         0.000000    0.000000    0.000000
 <Feb28-2017> <09:14:04>  >>>> CORORT
 <Feb28-2017> <09:14:04>  >>>> CLSMAT
 <Feb28-2017> <09:14:04>  >>>> ORTHON
 <Feb28-2017> <09:14:04>  >>>> GENPT
 <Feb28-2017> <09:14:04>  Block Length=  64
 <Feb28-2017> <09:14:04>  >>>> PTBAS
 <Feb28-2017> <09:14:04>  >>>> CYCLE
 <Feb28-2017> <09:14:04>              |Error|         MaxErr       Wt(A-DIIS)
 <Feb28-2017> <09:14:04>      1      0.00000000      0.00000000
 <Feb28-2017> <09:14:05>      2      0.04821042      0.04821042
 <Feb28-2017> <09:14:05>      3      0.00844396      0.00844396    100.0
 <Feb28-2017> <09:14:05>      4      0.00142332      0.00142332      0.4
 <Feb28-2017> <09:14:05>      5      0.00000254      0.00000254      0.0
 <Feb28-2017> <09:14:05>      6      0.00000000      0.00000000      0.0
 <Feb28-2017> <09:14:05>  SCF converged
 <Feb28-2017> <09:14:05>      7      0.00000000      0.00000000      0.0
 <Feb28-2017> <09:14:05>   Solutions with partially occupied orbitals may not be
 <Feb28-2017> <09:14:05>   lowest in energy. You might consider lowering the
 <Feb28-2017> <09:14:05>   symmetry in the input and explicitly specifying integer
 <Feb28-2017> <09:14:05>   occupations. In that case always check that you obtain
 <Feb28-2017> <09:14:05>   an aufbau solution.
 <Feb28-2017> <09:14:05>  >>>> POPAN
 <Feb28-2017> <09:14:05>  >>>> DEBYE
 <Feb28-2017> <09:14:05>  NORMAL TERMINATION
 <Feb28-2017> <09:14:05>  END

Create N   file=/home/lars/adf2016.101/atomicdata/DZP/N.1s
xc
  lda
End
End Input

 *******************************************************************************
 *                                                                             *
 *  -------------------------------------                                      *
 *   Amsterdam Density Functional  (ADF)         2016                          *
 *  -------------------------------------                                      *
 *                                               r51252 2016-03-08             *
 *                                                                             *
 *                                                                             *
 *                              =================                              *
 *                              |               |                              *
 *                              |     A D F     |                              *
 *                              |               |                              *
 *                              =================                              *
 *                                                                             *
 *                                                                             *
 *   Online information and documentation:  http://www.scm.com                 *
 *   E-mail:  support@scm.com   info@scm.com                                   *
 *                                                                             *
 *   Scientific publications using ADF results must be properly referenced     *
 *   See the User Manuals (or the web site) for recommended citations          *
 *   The terms and conditions of the End User License Agreement apply to       *
 *   the use of ADF, http://www.scm.com/Sales/LicAgreement.html                *
 *                                                                             *
 **********************  x86_64_linux_intel / intelmpi  ************************
 
 Licensed to: Dr. Rob van Nieuwpoort / eScience Center / Amsterdam / NL
 SCM User ID: u17149
  
 ADF 2016  RunTime: Feb28-2017 09:14:05  Nodes: 1  Procs: 1

 Temporary files are created in /tmp/kid_0.OOvG3J

 Nitrogen (DZP, 1s frozen)



 ===========================
 A T T A C H E D   F I L E S
 ===========================
  
 CREATE - Data File:    /home/lars/adf2016.101/atomicdata/DZP/N.1s
                        Nitrogen (DZP, 1s frozen)



 ===============================
 M O D E L   P A R A M E T E R S
 ===============================
  
 DENSITY FUNCTIONAL POTENTIAL (scf)
    LDA:                               VWN                                      
    Gradient Corrections:              ---                                      

 SPIN  (restricted / unrestr.)
    Molecule:                          Restricted                               

 OTHER ASPECTS
    Relativistic Corrections:          ---                                      

    Nuclear Charge Density Model:      Point Charge Nuclei                                                                                                                                                                                     
    Core Treatment:                    Frozen Orbital(s)                        

    Hyperfine or Zeeman Interaction:   ---                                      



 =====================================
 S Y M M E T R Y ,   E L E C T R O N S
 =====================================
  
 Symmetry: ATOM

 Irreducible Representations, including subspecies
 -------------------------------------------------
 S
 P:x  P:y  P:z
 D:z2  D:x2-y2  D:xy  D:xz  D:yz
 F:z3  F:z  F:xyz  F:z2x  F:z2y  F:x  F:y


 Configuration of Valence Electrons
 ==================================

          Occupation Numbers
          -------------------------------------------------
 S        2
 P        3
 D        0
 F        0
          -------------------------------------------------

 Total:   5

 Net Charge: 0 (Nuclei minus Electrons)

 Preset values for MO occupations will be applied through SCF cycle no. 1000000
 Thereafter, the program will assign electrons to MOs that are spatially
 similar to the occupied MOs in a "reference" cycle ("KeepOrbitals").
 The reference cycle is always the PREVIOUS cycle: it will evolve with
 the SCF procedure.



 ================================
 (Slater-type)  F U N C T I O N S  ***  (Basis and Fit)  ***
 ================================
  

 Atom Type    1  (N)
 ==============

 Valence Basis Sets:   6
 -----------------------
   1 S    6.380000
   2 S    1.460000
   2 S    2.380000
   2 P    1.120000
   2 P    2.580000
   3 D    2.200000

 Frozen Core Shells
 ------------------
    S:  1


 BAS: List of all Elementary Cartesian Basis Functions
 =====================================================

 The numbering in the list below (to the right of the function characteristics) is referred
 to in print-outs of MO eigenvectors and Mulliken populations in the BAS representation
 (as contrasted to the SFO representation).

 Notes:
 1. The functions are characterized by a polynomial prefactor (powers of x,y,z and r) and
    an exponential decay factor alpha.
 2. Since the basis sets are specific for an atom TYPE, the individual functions occur on
    all atoms of that type.
 3. The word 'Core' in the left margin signals that it is a Core Function (CF) : not a
    degree of freedom in the valence set, but only used to ensure orthogonalization of
    the other valence basis functions on the frozen Core Orbitals.


 (power of) X  Y  Z  R     Alpha  on Atom
            ==========     =====     ==========

 N                                    1
                                  ---------------------------------------------------------------------------
    Core    0  0  0  0     6.380      1
            0  0  0  1     1.460      2
            0  0  0  1     2.380      3
            1  0  0  0     1.120      4
            0  1  0  0     1.120      5
            0  0  1  0     1.120      6
            1  0  0  0     2.580      7
            0  1  0  0     2.580      8
            0  0  1  0     2.580      9
            2  0  0  0     2.200     10
            1  1  0  0     2.200     11
            1  0  1  0     2.200     12
            0  2  0  0     2.200     13
            0  1  1  0     2.200     14
            0  0  2  0     2.200     15

 Total number of charge fitting functions (nprimf)        82
 Total number of Cartesian basis functions (naos)         15
 Total number of Cartesian core functions  (ncos)          1



 BAS: List of all Elementary Cartesian Basis Functions
 =====================================================

 The numbering in the list below (to the right of the function characteristics) is referred
 to in print-outs of MO eigenvectors and Mulliken populations in the BAS representation
 (as contrasted to the SFO representation).

 Notes:
 1. The functions are characterized by a polynomial prefactor (powers of x,y,z and r) and
    an exponential decay factor alpha.
 2. Since the basis sets are specific for an atom TYPE, the individual functions occur on
    all atoms of that type.
 3. The word 'Core' in the left margin signals that it is a Core Function (CF) : not a
    degree of freedom in the valence set, but only used to ensure orthogonalization of
    the other valence basis functions on the frozen Core Orbitals.


 (power of) X  Y  Z  R     Alpha  on Atom
            ==========     =====     ==========

 N                                    1
                                  ---------------------------------------------------------------------------
    Core    0  0  0  0     6.380      1
            0  0  0  1     1.460      2
            0  0  0  1     2.380      3
            1  0  0  0     1.120      4
            0  1  0  0     1.120      5
            0  0  1  0     1.120      6
            1  0  0  0     2.580      7
            0  1  0  0     2.580      8
            0  0  1  0     2.580      9
            2  0  0  0     2.200     10
            1  1  0  0     2.200     11
            1  0  1  0     2.200     12
            0  2  0  0     2.200     13
            0  1  1  0     2.200     14
            0  0  2  0     2.200     15
1
 ***************************************************************************************************



                                              ***********************
                                              *  T E C H N I C A L  *
                                              ***********************
  



 =============================================================
 P A R A L L E L I Z A T I O N  and  V E C T O R I Z A T I O N
 =============================================================
  
 Nr of parallel processes:                                1
 Maximum vector length in NumInt loops:                 128

 IO buffersize (Mb):                                     64.000000



 =====================
 S C F   U P D A T E S
 =====================
  
 Max. nr. of cycles:                               300
 Convergence criterion:                              0.0000000100
   secondary criterion:                              0.0000000100

 Mix parameter (when DIIS does not apply):           0.2000000000
 Special mix parameter for the first cycle:          1.0000000000
 Mixed ADIIS+DIIS will be used
    Max number of expansion vectors:                10
    Pure ADIIS when Max([F,P]) is above              0.1000000000
    Pure DIIS when Max([F,P]) is below               0.0010000000
 Automatic ElectronSmearing (in case of problematic SCF convergence) disabled



 =================
 P R E C I S I O N  ***  (General: NumInt, NeglectFunctionTails, ...)  ***
 =================
  

 NumInt:           Target precision:                12.0000000000
 -------           Initial precision:               10.0000000000
                   Min. precision (optimization):   10.0000000000

 Neglect Functions:          Basis functions:        0.1000000000E-13
 ------------------          Fit functions:          0.1000000000E-13



 ===========================
 L I N E A R   S C A L I N G
 ===========================
  

 Cut-off radii density fit:                        0.1000000000E-97
 Overlap cut-off criterion AO matrix elements:     0.1000000000E-97
 Cut-offs for Coulomb potential and fitted density:0.1000000000E-97
 Cut-off criterion for Coulomb multipole terms:    0.1000000000E-97
 Progressive Convergence parameter:                 0.000000000    
1
 ***************************************************************************************************



                                            ***************************
                                            *  C O M P U T A T I O N  *
                                            ***************************
  

 Number of elements of the density matrix on this node (used, total):       120       120



 ===========================================
 Numerical Integration : Fuzzy Cells (Becke)
 ===========================================
  
 Becke grid quality: VERYGOOD       
  
 Lebedev angular grid order:             min:  13 max:  41
 Nr. of radial points:                   min:  68 max:  68

 Total nr. of points:         68
 Nr. of blocks:                1
 Block length:                68
 Nr. of dummy points:          0


 Test of Precision of the Numerical Integration Grid
 ===================================================

 Integral of the Total Core Density:                   1.99999999979028
 Relative Error:                                      -1.049E-10



 ========================
 Density Fitting (zlmFit)
 ========================
  
 ZlmFit Fit Quality: VERYGOOD       
  
 Max L-expansion:                        min:   0 max:   0
 Nr. of radial interpolation points:     min: 150 max: 150



 =====
 S C F  ***  ScaSCF  ***
 =====
  

 CYCLE    1
 SCF Error: norm([F,P])=      0.000000000000, max([F,P])=      0.000000000000
 orbitals (Q,E):
 ---------------
 S :1...2            ( 2.00    -3.7692)  ( 0.00    -1.5172)
 P :1...2            ( 3.00    -3.4759)  ( 0.00    -1.4599)
 D :1...1            ( 0.00    -1.3104)

 CYCLE    2
 SCF Error: norm([F,P])=      1.553521918191, max([F,P])=      1.265459514869
 orbitals (Q,E):
 ---------------
 S :1...2            ( 2.00    -0.1880)  ( 0.00     1.2410)
 P :1...2            ( 3.00     0.1556)  ( 0.00     1.1989)
 D :1...1            ( 0.00     1.6453)

 CYCLE    3
  SDIIS (wt  0.000):  0.4660  0.5340
 A-DIIS (wt  1.000):  0.3342  0.6658
  DIIS coefficients:  0.3342  0.6658
 SCF Error: norm([F,P])=      1.355960599512, max([F,P])=      1.045174026489
 orbitals (Q,E):
 ---------------
 S :1...2            ( 2.00    -0.8164)  ( 0.00     0.6055)
 P :1...2            ( 3.00    -0.4015)  ( 0.00     0.4852)
 D :1...1            ( 0.00     1.1279)

 CYCLE    4
  SDIIS (wt  0.000):  0.1937  0.8063
 A-DIIS (wt  1.000):  0.0000  1.0000
  DIIS coefficients:  0.0000  1.0000
 SCF Error: norm([F,P])=      0.326499353255, max([F,P])=      0.232888094159
 orbitals (Q,E):
 ---------------
 S :1...2            ( 2.00    -0.5745)  ( 0.00     0.7834)
 P :1...2            ( 3.00    -0.1706)  ( 0.00     0.6708)
 D :1...1            ( 0.00     1.3153)

 CYCLE    5
  SDIIS (wt  0.000): -0.3077  1.3077
 A-DIIS (wt  1.000):  0.0000  1.0000
  DIIS coefficients:  0.0000  1.0000
 SCF Error: norm([F,P])=      0.320722219414, max([F,P])=      0.230210721087
 orbitals (Q,E):
 ---------------
 S :1...2            ( 2.00    -0.7920)  ( 0.00     0.6066)
 P :1...2            ( 3.00    -0.3804)  ( 0.00     0.4849)
 D :1...1            ( 0.00     1.1518)

 CYCLE    6
  SDIIS (wt  0.000):  0.4803  0.5197
 A-DIIS (wt  1.000):  0.4669  0.5331
  DIIS coefficients:  0.4669  0.5331
 SCF Error: norm([F,P])=      0.296378987384, max([F,P])=      0.212572256044
 orbitals (Q,E):
 ---------------
 S :1...2            ( 2.00    -0.6793)  ( 0.00     0.6938)
 P :1...2            ( 3.00    -0.2691)  ( 0.00     0.5742)
 D :1...1            ( 0.00     1.2348)

 CYCLE    7
  SDIIS (wt  0.944):  0.0296  0.9704
 A-DIIS (wt  0.056):  0.0000  1.0000
  DIIS coefficients:  0.0280  0.9720
 SCF Error: norm([F,P])=      0.009045365394, max([F,P])=      0.006537566936
 orbitals (Q,E):
 ---------------
 S :1...2            ( 2.00    -0.6821)  ( 0.00     0.6910)
 P :1...2            ( 3.00    -0.2719)  ( 0.00     0.5712)
 D :1...1            ( 0.00     1.2330)

 CYCLE    8
  SDIIS (wt  1.000):  0.0413  0.9587
  DIIS coefficients:  0.0413  0.9587
 SCF Error: norm([F,P])=      0.000389701739, max([F,P])=      0.000276746690
 orbitals (Q,E):
 ---------------
 S :1...2            ( 2.00    -0.6819)  ( 0.00     0.6911)
 P :1...2            ( 3.00    -0.2717)  ( 0.00     0.5714)
 D :1...1            ( 0.00     1.2331)

 CYCLE    9
  SDIIS (wt  1.000):  0.0091  0.9909
  DIIS coefficients:  0.0091  0.9909
 SCF Error: norm([F,P])=      0.000003575604, max([F,P])=      0.000002543717
 orbitals (Q,E):
 ---------------
 S :1...2            ( 2.00    -0.6819)  ( 0.00     0.6911)
 P :1...2            ( 3.00    -0.2717)  ( 0.00     0.5713)
 D :1...1            ( 0.00     1.2331)

 CYCLE   10
  SDIIS (wt  1.000): -0.0009  1.0009
  DIIS coefficients: -0.0009  1.0009
 SCF Error: norm([F,P])=      0.000000003234, max([F,P])=      0.000000002299
 orbitals (Q,E):
 ---------------
 S :1...2            ( 2.00    -0.6819)  ( 0.00     0.6911)
 P :1...2            ( 3.00    -0.2717)  ( 0.00     0.5713)
 D :1...1            ( 0.00     1.2331)

 SCF CONVERGED

 CYCLE   11
1
 ***************************************************************************************************



                                                *******************
                                                *  R E S U L T S  *
                                                *******************
  
 *** Setting up for NEW gradients in Focky
 *** Using FIT density in Focky

 Orbital Energies, per Irrep and Spin:
 ======================================
                        Occup              E (au)              E (eV)       Diff (eV) with prev. cycle
                        -----      --------------------        ------       --------------------------
 S
               1        2.000     -0.68191137691310E+00       -18.556               1.34E-11
               2        0.000      0.69114583640426E+00        18.807
 P
               1        3.000     -0.27173345057784E+00        -7.394               1.31E-11
               2        0.000      0.57134959564944E+00        15.547
 D
               1        0.000      0.12330752997853E+01        33.554


 Partially Occupied:
               1 P                -0.27173345057784E+00
  
 HOMO :        1 S                -0.68191137691310E+00
 LUMO :        2 P                 0.57134959564944E+00
  


 Orbital Energies, all Irreps
 ========================================

 Irrep        no.  (spin)   Occup              E (au)                E (eV)
 ---------------------------------------------------------------------------
 S             1             2.00       -0.68191137691310E+00       -18.5558
 P             1             3.00       -0.27173345057784E+00        -7.3942
 P             2             0.00        0.57134959564944E+00        15.5472
 S             2             0.00        0.69114583640426E+00        18.8070
 D             1             0.00        0.12330752997853E+01        33.5537


 Orbital Energies of the Core Orbitals:
 ======================================
 (Note that the atoms are grouped by atomtype, see the labels, and may hence NOT be in input order)

 AtomType  Orbital  Atom                   E (au)                        E (eV)
 --------  -------  ----           --------------------        ----------------
 N           1S        1          -0.14027273943839E+02                -381.702



 =======================================
 M U L L I K E N   P O P U L A T I O N S
 =======================================
  
 The survey below gives for each atom:
 a) the total charge (Z minus electrons)
 b) the net spin polarization (nr of electrons spin-A minus spin-B)
 c) for each spin the atomic electron valence density (integrated) per L-value.

 Atom              Charge    Spin density          S         P         D         F
 ----              ------    ------------       ------    ------    ------    ------
 1 N              -0.0000                       2.0000    3.0000    0.0000    0.0000

 Populations of individual BAS functions
 ----------------------------------------
 1 N            0.0003  0.9089  1.0908  0.4917  0.4917  0.4917  0.5083  0.5083  0.5083  0.0000
                0.0000  0.0000  0.0000  0.0000  0.0000

 Gross Charges per Atom (Z minus electrons)
 ==========================================
            -0.0000
 Net Total: -0.00000000



 =======================================================================
 Electrostatic potential at the Nuclei due to electrons and other nuclei
 =======================================================================
  
         Atom                  Potential
         ----                  ---------
     1)   N                  18.21786911
 
 
 ========================
 No memory problems found
 ========================
 
 Maximum number of active allocate calls:         376
 
 *******************************************************************************

                             A D F   E X I T
 NORMAL TERMINATION



 =================
 Timing Statistics
 =================
  
 Total Used :                     CPU=        0.32      System=        0.03     Elapsed=        0.35

 Calls  Section                     ( Mean, Percentage )
 ---------------------------------------------------------------------------------------------------
     3  ><      ................      0.00    0.13             0.00    0.00             0.00    0.14
     1  INIT    ................      0.01    2.84             0.00   13.52             0.02    5.47
     1  GEOMET  ................      0.00    1.48             0.00    0.50             0.00    1.39
     1  INPUTA  ................      0.00    0.34             0.00    0.00             0.00    0.34
     1  MAINSY  ................      0.00    1.31             0.00    0.00             0.00    1.25
     1  SYMFIT  ................      0.00    0.08             0.00    0.00             0.00    0.08
     1  CORORT  ................      0.00    0.12             0.00    0.00             0.00    0.11
     1  SYMORB  ................      0.00    0.21             0.00    0.00             0.00    0.10
     1  CLSMAT  ................      0.00    0.58             0.00    0.00             0.00    0.58
     1  ORTHON  ................      0.00    0.22             0.00    0.00             0.00    0.23
     1  GENPT   ................      0.01    2.43             0.00    0.00             0.01    2.20
     1  PTBAS   ................      0.00    0.37             0.00    0.17             0.00    0.36
    11  FOCKY   ................      0.02   75.00             0.00   58.47             0.02   73.62
    11  FOCKTR  ................      0.00    1.81             0.00   13.66             0.00    1.74
    11  SDIIS   ................      0.00    2.51             0.00    0.29             0.00    2.45
     1  COREPS  ................      0.02    5.46             0.00    0.01             0.02    5.04
     1  POPAN   ................      0.00    0.59             0.00    0.00             0.00    0.50
     1  DEBYE   ................      0.00    0.07             0.00    0.00             0.00    0.09
     1  EXIT PROCEDURE .........      0.01    4.46             0.00   13.38             0.02    4.33


 Currently Open Files (EXIT00)
 ====================

 Unit    Access Format  Status   Type       Ident (file)
 -------------------------------------------------------
   3      SEQ    FORM   TRANSP  NORMAL      LOGFILE
                                          ( logfile )


 Buffered I/O statistics
 =======================
 Memory available:                     67108864
 Number of records fitting in memory:     16131
 Input :   0.6% of                         2388  *4k bytes
 Output:  11.4% of                         1376  *4k bytes
 Records from serial files evicted:           0
                    others evicted:           0
 Hash table lookups:      10508 with          0 conflicts (  0.00%)

 ***************************************************************************************************
 (LOGFILE)
 <Feb28-2017> <09:14:04>  ADF 2016  RunTime: Feb28-2017 09:14:04  Nodes: 1  Procs: 1
 <Feb28-2017> <09:14:04>  Hydrogen (DZP)
 <Feb28-2017> <09:14:04>  RunType   : CREATE
 <Feb28-2017> <09:14:04>  Net Charge: 0 (Nuclei minus Electrons)
 <Feb28-2017> <09:14:04>  Symmetry  : ATOM
  Coordinates
    Atom         X           Y           Z   (Angstrom)
    1.H         0.000000    0.000000    0.000000
 <Feb28-2017> <09:14:04>  >>>> CORORT
 <Feb28-2017> <09:14:04>  >>>> CLSMAT
 <Feb28-2017> <09:14:04>  >>>> ORTHON
 <Feb28-2017> <09:14:04>  >>>> GENPT
 <Feb28-2017> <09:14:04>  Block Length=  64
 <Feb28-2017> <09:14:04>  >>>> PTBAS
 <Feb28-2017> <09:14:04>  >>>> CYCLE
 <Feb28-2017> <09:14:04>              |Error|         MaxErr       Wt(A-DIIS)
 <Feb28-2017> <09:14:04>      1      0.00000000      0.00000000
 <Feb28-2017> <09:14:05>      2      0.04821042      0.04821042
 <Feb28-2017> <09:14:05>      3      0.00844396      0.00844396    100.0
 <Feb28-2017> <09:14:05>      4      0.00142332      0.00142332      0.4
 <Feb28-2017> <09:14:05>      5      0.00000254      0.00000254      0.0
 <Feb28-2017> <09:14:05>      6      0.00000000      0.00000000      0.0
 <Feb28-2017> <09:14:05>  SCF converged
 <Feb28-2017> <09:14:05>      7      0.00000000      0.00000000      0.0
 <Feb28-2017> <09:14:05>   Solutions with partially occupied orbitals may not be
 <Feb28-2017> <09:14:05>   lowest in energy. You might consider lowering the
 <Feb28-2017> <09:14:05>   symmetry in the input and explicitly specifying integer
 <Feb28-2017> <09:14:05>   occupations. In that case always check that you obtain
 <Feb28-2017> <09:14:05>   an aufbau solution.
 <Feb28-2017> <09:14:05>  >>>> POPAN
 <Feb28-2017> <09:14:05>  >>>> DEBYE
 <Feb28-2017> <09:14:05>  NORMAL TERMINATION
 <Feb28-2017> <09:14:05>  END
 <Feb28-2017> <09:14:05>  ADF 2016  RunTime: Feb28-2017 09:14:05  Nodes: 1  Procs: 1
 <Feb28-2017> <09:14:05>  Nitrogen (DZP, 1s frozen)
 <Feb28-2017> <09:14:05>  RunType   : CREATE
 <Feb28-2017> <09:14:05>  Net Charge: 0 (Nuclei minus Electrons)
 <Feb28-2017> <09:14:05>  Symmetry  : ATOM
  Coordinates
    Atom         X           Y           Z   (Angstrom)
    1.N         0.000000    0.000000    0.000000
 <Feb28-2017> <09:14:05>  >>>> CORORT
 <Feb28-2017> <09:14:05>  >>>> CLSMAT
 <Feb28-2017> <09:14:05>  >>>> ORTHON
 <Feb28-2017> <09:14:05>  >>>> GENPT
 <Feb28-2017> <09:14:05>  Block Length=  68
 <Feb28-2017> <09:14:05>  >>>> PTBAS
 <Feb28-2017> <09:14:05>  >>>> CYCLE
 <Feb28-2017> <09:14:05>              |Error|         MaxErr       Wt(A-DIIS)
 <Feb28-2017> <09:14:05>      1      0.00000000      0.00000000
 <Feb28-2017> <09:14:05>      2      1.55352192      1.26545951
 <Feb28-2017> <09:14:05>      3      1.35596060      1.04517403    100.0
 <Feb28-2017> <09:14:05>      4      0.32649935      0.23288809    100.0
 <Feb28-2017> <09:14:05>      5      0.32072222      0.23021072    100.0
 <Feb28-2017> <09:14:05>      6      0.29637899      0.21257226    100.0
 <Feb28-2017> <09:14:05>      7      0.00904537      0.00653757      5.6
 <Feb28-2017> <09:14:05>      8      0.00038970      0.00027675      0.0
 <Feb28-2017> <09:14:05>      9      0.00000358      0.00000254      0.0
 <Feb28-2017> <09:14:05>     10      0.00000000      0.00000000      0.0
 <Feb28-2017> <09:14:05>  SCF converged
 <Feb28-2017> <09:14:05>     11      0.00000000      0.00000000      0.0
 <Feb28-2017> <09:14:05>   Solutions with partially occupied orbitals may not be
 <Feb28-2017> <09:14:05>   lowest in energy. You might consider lowering the
 <Feb28-2017> <09:14:05>   symmetry in the input and explicitly specifying integer
 <Feb28-2017> <09:14:05>   occupations. In that case always check that you obtain
 <Feb28-2017> <09:14:05>   an aufbau solution.
 <Feb28-2017> <09:14:05>  >>>> POPAN
 <Feb28-2017> <09:14:05>  >>>> DEBYE
 <Feb28-2017> <09:14:05>  NORMAL TERMINATION
 <Feb28-2017> <09:14:05>  END

Create C   file=/home/lars/adf2016.101/atomicdata/DZP/C.1s
xc
  lda
End
End Input

 *******************************************************************************
 *                                                                             *
 *  -------------------------------------                                      *
 *   Amsterdam Density Functional  (ADF)         2016                          *
 *  -------------------------------------                                      *
 *                                               r51252 2016-03-08             *
 *                                                                             *
 *                                                                             *
 *                              =================                              *
 *                              |               |                              *
 *                              |     A D F     |                              *
 *                              |               |                              *
 *                              =================                              *
 *                                                                             *
 *                                                                             *
 *   Online information and documentation:  http://www.scm.com                 *
 *   E-mail:  support@scm.com   info@scm.com                                   *
 *                                                                             *
 *   Scientific publications using ADF results must be properly referenced     *
 *   See the User Manuals (or the web site) for recommended citations          *
 *   The terms and conditions of the End User License Agreement apply to       *
 *   the use of ADF, http://www.scm.com/Sales/LicAgreement.html                *
 *                                                                             *
 **********************  x86_64_linux_intel / intelmpi  ************************
 
 Licensed to: Dr. Rob van Nieuwpoort / eScience Center / Amsterdam / NL
 SCM User ID: u17149
  
 ADF 2016  RunTime: Feb28-2017 09:14:05  Nodes: 1  Procs: 1

 Temporary files are created in /tmp/kid_0.ohe6s9

 Carbon (DZP, 1s frozen)



 ===========================
 A T T A C H E D   F I L E S
 ===========================
  
 CREATE - Data File:    /home/lars/adf2016.101/atomicdata/DZP/C.1s
                        Carbon (DZP, 1s frozen)



 ===============================
 M O D E L   P A R A M E T E R S
 ===============================
  
 DENSITY FUNCTIONAL POTENTIAL (scf)
    LDA:                               VWN                                      
    Gradient Corrections:              ---                                      

 SPIN  (restricted / unrestr.)
    Molecule:                          Restricted                               

 OTHER ASPECTS
    Relativistic Corrections:          ---                                      

    Nuclear Charge Density Model:      Point Charge Nuclei                                                                                                                                                                                     
    Core Treatment:                    Frozen Orbital(s)                        

    Hyperfine or Zeeman Interaction:   ---                                      



 =====================================
 S Y M M E T R Y ,   E L E C T R O N S
 =====================================
  
 Symmetry: ATOM

 Irreducible Representations, including subspecies
 -------------------------------------------------
 S
 P:x  P:y  P:z
 D:z2  D:x2-y2  D:xy  D:xz  D:yz
 F:z3  F:z  F:xyz  F:z2x  F:z2y  F:x  F:y


 Configuration of Valence Electrons
 ==================================

          Occupation Numbers
          -------------------------------------------------
 S        2
 P        2
 D        0
 F        0
          -------------------------------------------------

 Total:   4

 Net Charge: 0 (Nuclei minus Electrons)

 Preset values for MO occupations will be applied through SCF cycle no. 1000000
 Thereafter, the program will assign electrons to MOs that are spatially
 similar to the occupied MOs in a "reference" cycle ("KeepOrbitals").
 The reference cycle is always the PREVIOUS cycle: it will evolve with
 the SCF procedure.



 ================================
 (Slater-type)  F U N C T I O N S  ***  (Basis and Fit)  ***
 ================================
  

 Atom Type    1  (C)
 ==============

 Valence Basis Sets:   6
 -----------------------
   1 S    5.400000
   2 S    1.240000
   2 S    1.980000
   2 P    0.960000
   2 P    2.200000
   3 D    2.200000

 Frozen Core Shells
 ------------------
    S:  1


 BAS: List of all Elementary Cartesian Basis Functions
 =====================================================

 The numbering in the list below (to the right of the function characteristics) is referred
 to in print-outs of MO eigenvectors and Mulliken populations in the BAS representation
 (as contrasted to the SFO representation).

 Notes:
 1. The functions are characterized by a polynomial prefactor (powers of x,y,z and r) and
    an exponential decay factor alpha.
 2. Since the basis sets are specific for an atom TYPE, the individual functions occur on
    all atoms of that type.
 3. The word 'Core' in the left margin signals that it is a Core Function (CF) : not a
    degree of freedom in the valence set, but only used to ensure orthogonalization of
    the other valence basis functions on the frozen Core Orbitals.


 (power of) X  Y  Z  R     Alpha  on Atom
            ==========     =====     ==========

 C                                    1
                                  ---------------------------------------------------------------------------
    Core    0  0  0  0     5.400      1
            0  0  0  1     1.240      2
            0  0  0  1     1.980      3
            1  0  0  0     0.960      4
            0  1  0  0     0.960      5
            0  0  1  0     0.960      6
            1  0  0  0     2.200      7
            0  1  0  0     2.200      8
            0  0  1  0     2.200      9
            2  0  0  0     2.200     10
            1  1  0  0     2.200     11
            1  0  1  0     2.200     12
            0  2  0  0     2.200     13
            0  1  1  0     2.200     14
            0  0  2  0     2.200     15

 Total number of charge fitting functions (nprimf)        82
 Total number of Cartesian basis functions (naos)         15
 Total number of Cartesian core functions  (ncos)          1



 BAS: List of all Elementary Cartesian Basis Functions
 =====================================================

 The numbering in the list below (to the right of the function characteristics) is referred
 to in print-outs of MO eigenvectors and Mulliken populations in the BAS representation
 (as contrasted to the SFO representation).

 Notes:
 1. The functions are characterized by a polynomial prefactor (powers of x,y,z and r) and
    an exponential decay factor alpha.
 2. Since the basis sets are specific for an atom TYPE, the individual functions occur on
    all atoms of that type.
 3. The word 'Core' in the left margin signals that it is a Core Function (CF) : not a
    degree of freedom in the valence set, but only used to ensure orthogonalization of
    the other valence basis functions on the frozen Core Orbitals.


 (power of) X  Y  Z  R     Alpha  on Atom
            ==========     =====     ==========

 C                                    1
                                  ---------------------------------------------------------------------------
    Core    0  0  0  0     5.400      1
            0  0  0  1     1.240      2
            0  0  0  1     1.980      3
            1  0  0  0     0.960      4
            0  1  0  0     0.960      5
            0  0  1  0     0.960      6
            1  0  0  0     2.200      7
            0  1  0  0     2.200      8
            0  0  1  0     2.200      9
            2  0  0  0     2.200     10
            1  1  0  0     2.200     11
            1  0  1  0     2.200     12
            0  2  0  0     2.200     13
            0  1  1  0     2.200     14
            0  0  2  0     2.200     15
1
 ***************************************************************************************************



                                              ***********************
                                              *  T E C H N I C A L  *
                                              ***********************
  



 =============================================================
 P A R A L L E L I Z A T I O N  and  V E C T O R I Z A T I O N
 =============================================================
  
 Nr of parallel processes:                                1
 Maximum vector length in NumInt loops:                 128

 IO buffersize (Mb):                                     64.000000



 =====================
 S C F   U P D A T E S
 =====================
  
 Max. nr. of cycles:                               300
 Convergence criterion:                              0.0000000100
   secondary criterion:                              0.0000000100

 Mix parameter (when DIIS does not apply):           0.2000000000
 Special mix parameter for the first cycle:          1.0000000000
 Mixed ADIIS+DIIS will be used
    Max number of expansion vectors:                10
    Pure ADIIS when Max([F,P]) is above              0.1000000000
    Pure DIIS when Max([F,P]) is below               0.0010000000
 Automatic ElectronSmearing (in case of problematic SCF convergence) disabled



 =================
 P R E C I S I O N  ***  (General: NumInt, NeglectFunctionTails, ...)  ***
 =================
  

 NumInt:           Target precision:                12.0000000000
 -------           Initial precision:               10.0000000000
                   Min. precision (optimization):   10.0000000000

 Neglect Functions:          Basis functions:        0.1000000000E-13
 ------------------          Fit functions:          0.1000000000E-13



 ===========================
 L I N E A R   S C A L I N G
 ===========================
  

 Cut-off radii density fit:                        0.1000000000E-97
 Overlap cut-off criterion AO matrix elements:     0.1000000000E-97
 Cut-offs for Coulomb potential and fitted density:0.1000000000E-97
 Cut-off criterion for Coulomb multipole terms:    0.1000000000E-97
 Progressive Convergence parameter:                 0.000000000    
1
 ***************************************************************************************************



                                            ***************************
                                            *  C O M P U T A T I O N  *
                                            ***************************
  

 Number of elements of the density matrix on this node (used, total):       120       120



 ===========================================
 Numerical Integration : Fuzzy Cells (Becke)
 ===========================================
  
 Becke grid quality: VERYGOOD       
  
 Lebedev angular grid order:             min:  13 max:  41
 Nr. of radial points:                   min:  68 max:  68

 Total nr. of points:         68
 Nr. of blocks:                1
 Block length:                68
 Nr. of dummy points:          0


 Test of Precision of the Numerical Integration Grid
 ===================================================

 Integral of the Total Core Density:                   1.99999999985293
 Relative Error:                                      -7.354E-11



 ========================
 Density Fitting (zlmFit)
 ========================
  
 ZlmFit Fit Quality: VERYGOOD       
  
 Max L-expansion:                        min:   0 max:   0
 Nr. of radial interpolation points:     min: 140 max: 140



 =====
 S C F  ***  ScaSCF  ***
 =====
  

 CYCLE    1
 SCF Error: norm([F,P])=      0.000000000000, max([F,P])=      0.000000000000
 orbitals (Q,E):
 ---------------
 S :1...2            ( 2.00    -2.5148)  ( 0.00    -0.9877)
 P :1...2            ( 2.00    -2.2830)  ( 0.00    -0.9530)
 D :1...1            ( 0.00    -0.6053)

 CYCLE    2
 SCF Error: norm([F,P])=      0.961719955154, max([F,P])=      0.852513931246
 orbitals (Q,E):
 ---------------
 S :1...2            ( 2.00    -0.1779)  ( 0.00     0.8274)
 P :1...2            ( 2.00     0.0803)  ( 0.00     0.8515)
 D :1...1            ( 0.00     1.5679)

 CYCLE    3
  SDIIS (wt  0.000):  0.4217  0.5783
 A-DIIS (wt  1.000):  0.2128  0.7872
  DIIS coefficients:  0.2128  0.7872
 SCF Error: norm([F,P])=      0.701225068732, max([F,P])=      0.610675719838
 orbitals (Q,E):
 ---------------
 S :1...2            ( 2.00    -0.6343)  ( 0.00     0.3810)
 P :1...2            ( 2.00    -0.3276)  ( 0.00     0.3365)
 D :1...1            ( 0.00     1.1076)

 CYCLE    4
  SDIIS (wt  0.000):  0.2598  0.7402
 A-DIIS (wt  1.000):  0.0000  1.0000
  DIIS coefficients:  0.0000  1.0000
 SCF Error: norm([F,P])=      0.246462962981, max([F,P])=      0.204838845090
 orbitals (Q,E):
 ---------------
 S :1...2            ( 2.00    -0.4200)  ( 0.00     0.5464)
 P :1...2            ( 2.00    -0.1254)  ( 0.00     0.5194)
 D :1...1            ( 0.00     1.3120)

 CYCLE    5
  SDIIS (wt  0.000):  0.4451  0.5549
 A-DIIS (wt  1.000):  0.3616  0.6384
  DIIS coefficients:  0.3616  0.6384
 SCF Error: norm([F,P])=      0.197669833234, max([F,P])=      0.165829705824
 orbitals (Q,E):
 ---------------
 S :1...2            ( 2.00    -0.5209)  ( 0.00     0.4595)
 P :1...2            ( 2.00    -0.2182)  ( 0.00     0.4207)
 D :1...1            ( 0.00     1.2142)

 CYCLE    6
  SDIIS (wt  0.777):  0.1229  0.8771
 A-DIIS (wt  0.223):  0.0000  1.0000
  DIIS coefficients:  0.0956  0.9044
 SCF Error: norm([F,P])=      0.027705147851, max([F,P])=      0.023033257444
 orbitals (Q,E):
 ---------------
 S :1...2            ( 2.00    -0.5054)  ( 0.00     0.4716)
 P :1...2            ( 2.00    -0.2037)  ( 0.00     0.4342)
 D :1...1            ( 0.00     1.2290)

 CYCLE    7
  SDIIS (wt  0.968):  0.1534  0.8466
 A-DIIS (wt  0.032):  0.0000  1.0000
  DIIS coefficients:  0.1485  0.8515
 SCF Error: norm([F,P])=      0.005020854403, max([F,P])=      0.004188165535
 orbitals (Q,E):
 ---------------
 S :1...2            ( 2.00    -0.5077)  ( 0.00     0.4697)
 P :1...2            ( 2.00    -0.2059)  ( 0.00     0.4320)
 D :1...1            ( 0.00     1.2268)

 CYCLE    8
  SDIIS (wt  1.000):  0.0221  0.9779
  DIIS coefficients:  0.0221  0.9779
 SCF Error: norm([F,P])=      0.000113365801, max([F,P])=      0.000094362082
 orbitals (Q,E):
 ---------------
 S :1...2            ( 2.00    -0.5077)  ( 0.00     0.4697)
 P :1...2            ( 2.00    -0.2058)  ( 0.00     0.4321)
 D :1...1            ( 0.00     1.2269)

 CYCLE    9
  SDIIS (wt  1.000):  0.0020  0.9980
  DIIS coefficients:  0.0020  0.9980
 SCF Error: norm([F,P])=      0.000000226796, max([F,P])=      0.000000189096
 orbitals (Q,E):
 ---------------
 S :1...2            ( 2.00    -0.5077)  ( 0.00     0.4697)
 P :1...2            ( 2.00    -0.2058)  ( 0.00     0.4321)
 D :1...1            ( 0.00     1.2269)

 CYCLE   10
  SDIIS (wt  1.000): -0.0016  1.0016
  DIIS coefficients: -0.0016  1.0016
 SCF Error: norm([F,P])=      0.000000000357, max([F,P])=      0.000000000297
 orbitals (Q,E):
 ---------------
 S :1...2            ( 2.00    -0.5077)  ( 0.00     0.4697)
 P :1...2            ( 2.00    -0.2058)  ( 0.00     0.4321)
 D :1...1            ( 0.00     1.2269)

 SCF CONVERGED

 CYCLE   11
1
 ***************************************************************************************************



                                                *******************
                                                *  R E S U L T S  *
                                                *******************
  
 *** Setting up for NEW gradients in Focky
 *** Using FIT density in Focky

 Orbital Energies, per Irrep and Spin:
 ======================================
                        Occup              E (au)              E (eV)       Diff (eV) with prev. cycle
                        -----      --------------------        ------       --------------------------
 S
               1        2.000     -0.50766299902099E+00       -13.814               1.27E-11
               2        0.000      0.46973187265994E+00        12.782
 P
               1        2.000     -0.20581338371553E+00        -5.600               1.21E-11
               2        0.000      0.43205084062244E+00        11.757
 D
               1        0.000      0.12268650779389E+01        33.385


 Partially Occupied:
               1 P                -0.20581338371553E+00
  
 HOMO :        1 S                -0.50766299902099E+00
 LUMO :        2 P                 0.43205084062244E+00
  


 Orbital Energies, all Irreps
 ========================================

 Irrep        no.  (spin)   Occup              E (au)                E (eV)
 ---------------------------------------------------------------------------
 S             1             2.00       -0.50766299902099E+00       -13.8142
 P             1             2.00       -0.20581338371553E+00        -5.6005
 P             2             0.00        0.43205084062244E+00        11.7567
 S             2             0.00        0.46973187265994E+00        12.7821
 D             1             0.00        0.12268650779389E+01        33.3847


 Orbital Energies of the Core Orbitals:
 ======================================
 (Note that the atoms are grouped by atomtype, see the labels, and may hence NOT be in input order)

 AtomType  Orbital  Atom                   E (au)                        E (eV)
 --------  -------  ----           --------------------        ----------------
 C           1S        1          -0.99531877336699E+01                -270.840



 =======================================
 M U L L I K E N   P O P U L A T I O N S
 =======================================
  
 The survey below gives for each atom:
 a) the total charge (Z minus electrons)
 b) the net spin polarization (nr of electrons spin-A minus spin-B)
 c) for each spin the atomic electron valence density (integrated) per L-value.

 Atom              Charge    Spin density          S         P         D         F
 ----              ------    ------------       ------    ------    ------    ------
 1 C               0.0000                       2.0000    2.0000    0.0000    0.0000

 Populations of individual BAS functions
 ----------------------------------------
 1 C            0.0003  0.9069  1.0928  0.3608  0.3608  0.3608  0.3058  0.3058  0.3058  0.0000
                0.0000  0.0000  0.0000  0.0000  0.0000

 Gross Charges per Atom (Z minus electrons)
 ==========================================
             0.0000
 Net Total:  0.00000000



 =======================================================================
 Electrostatic potential at the Nuclei due to electrons and other nuclei
 =======================================================================
  
         Atom                  Potential
         ----                  ---------
     1)   C                  14.60983159
 
 
 ========================
 No memory problems found
 ========================
 
 Maximum number of active allocate calls:         376
 
 *******************************************************************************

                             A D F   E X I T
 NORMAL TERMINATION



 =================
 Timing Statistics
 =================
  
 Total Used :                     CPU=        0.31      System=        0.02     Elapsed=        0.34

 Calls  Section                     ( Mean, Percentage )
 ---------------------------------------------------------------------------------------------------
     3  ><      ................      0.00    0.41             0.00    0.00             0.00    0.11
     1  INIT    ................      0.01    2.99             0.01   21.47             0.01    4.37
     1  GEOMET  ................      0.00    1.50             0.00    0.00             0.00    1.47
     1  INPUTA  ................      0.00    0.00             0.00    0.00             0.00    0.31
     1  MAINSY  ................      0.01    1.78             0.00    0.00             0.01    1.51
     1  SYMFIT  ................      0.00    0.00             0.00    0.00             0.00    0.05
     1  CORORT  ................      0.00    0.00             0.00    0.00             0.00    0.10
     1  SYMORB  ................      0.00    0.19             0.00    0.00             0.00    0.07
     1  CLSMAT  ................      0.00    0.78             0.00    0.00             0.00    0.72
     1  ORTHON  ................      0.00    0.26             0.00    0.00             0.00    0.27
     1  GENPT   ................      0.00    1.21             0.00   13.26             0.01    2.28
     1  PTBAS   ................      0.00    0.36             0.00    1.59             0.00    0.46
    11  FOCKY   ................      0.02   75.92             0.00   34.51             0.02   74.54
    11  FOCKTR  ................      0.00    1.91             0.00    0.48             0.00    1.74
    11  SDIIS   ................      0.00    2.54             0.00   13.23             0.00    2.38
     1  COREPS  ................      0.02    4.93             0.00    0.00             0.02    4.56
     1  POPAN   ................      0.00    0.63             0.00    0.00             0.00    0.55
     1  DEBYE   ................      0.00    0.07             0.00    0.00             0.00    0.08
     1  EXIT PROCEDURE .........      0.01    4.50             0.00   15.46             0.01    4.41


 Currently Open Files (EXIT00)
 ====================

 Unit    Access Format  Status   Type       Ident (file)
 -------------------------------------------------------
   3      SEQ    FORM   TRANSP  NORMAL      LOGFILE
                                          ( logfile )


 Buffered I/O statistics
 =======================
 Memory available:                     67108864
 Number of records fitting in memory:     16131
 Input :   0.6% of                         2384  *4k bytes
 Output:  11.5% of                         1369  *4k bytes
 Records from serial files evicted:           0
                    others evicted:           0
 Hash table lookups:      10473 with          0 conflicts (  0.00%)

 ***************************************************************************************************
 (LOGFILE)
 <Feb28-2017> <09:14:04>  ADF 2016  RunTime: Feb28-2017 09:14:04  Nodes: 1  Procs: 1
 <Feb28-2017> <09:14:04>  Hydrogen (DZP)
 <Feb28-2017> <09:14:04>  RunType   : CREATE
 <Feb28-2017> <09:14:04>  Net Charge: 0 (Nuclei minus Electrons)
 <Feb28-2017> <09:14:04>  Symmetry  : ATOM
  Coordinates
    Atom         X           Y           Z   (Angstrom)
    1.H         0.000000    0.000000    0.000000
 <Feb28-2017> <09:14:04>  >>>> CORORT
 <Feb28-2017> <09:14:04>  >>>> CLSMAT
 <Feb28-2017> <09:14:04>  >>>> ORTHON
 <Feb28-2017> <09:14:04>  >>>> GENPT
 <Feb28-2017> <09:14:04>  Block Length=  64
 <Feb28-2017> <09:14:04>  >>>> PTBAS
 <Feb28-2017> <09:14:04>  >>>> CYCLE
 <Feb28-2017> <09:14:04>              |Error|         MaxErr       Wt(A-DIIS)
 <Feb28-2017> <09:14:04>      1      0.00000000      0.00000000
 <Feb28-2017> <09:14:05>      2      0.04821042      0.04821042
 <Feb28-2017> <09:14:05>      3      0.00844396      0.00844396    100.0
 <Feb28-2017> <09:14:05>      4      0.00142332      0.00142332      0.4
 <Feb28-2017> <09:14:05>      5      0.00000254      0.00000254      0.0
 <Feb28-2017> <09:14:05>      6      0.00000000      0.00000000      0.0
 <Feb28-2017> <09:14:05>  SCF converged
 <Feb28-2017> <09:14:05>      7      0.00000000      0.00000000      0.0
 <Feb28-2017> <09:14:05>   Solutions with partially occupied orbitals may not be
 <Feb28-2017> <09:14:05>   lowest in energy. You might consider lowering the
 <Feb28-2017> <09:14:05>   symmetry in the input and explicitly specifying integer
 <Feb28-2017> <09:14:05>   occupations. In that case always check that you obtain
 <Feb28-2017> <09:14:05>   an aufbau solution.
 <Feb28-2017> <09:14:05>  >>>> POPAN
 <Feb28-2017> <09:14:05>  >>>> DEBYE
 <Feb28-2017> <09:14:05>  NORMAL TERMINATION
 <Feb28-2017> <09:14:05>  END
 <Feb28-2017> <09:14:05>  ADF 2016  RunTime: Feb28-2017 09:14:05  Nodes: 1  Procs: 1
 <Feb28-2017> <09:14:05>  Nitrogen (DZP, 1s frozen)
 <Feb28-2017> <09:14:05>  RunType   : CREATE
 <Feb28-2017> <09:14:05>  Net Charge: 0 (Nuclei minus Electrons)
 <Feb28-2017> <09:14:05>  Symmetry  : ATOM
  Coordinates
    Atom         X           Y           Z   (Angstrom)
    1.N         0.000000    0.000000    0.000000
 <Feb28-2017> <09:14:05>  >>>> CORORT
 <Feb28-2017> <09:14:05>  >>>> CLSMAT
 <Feb28-2017> <09:14:05>  >>>> ORTHON
 <Feb28-2017> <09:14:05>  >>>> GENPT
 <Feb28-2017> <09:14:05>  Block Length=  68
 <Feb28-2017> <09:14:05>  >>>> PTBAS
 <Feb28-2017> <09:14:05>  >>>> CYCLE
 <Feb28-2017> <09:14:05>              |Error|         MaxErr       Wt(A-DIIS)
 <Feb28-2017> <09:14:05>      1      0.00000000      0.00000000
 <Feb28-2017> <09:14:05>      2      1.55352192      1.26545951
 <Feb28-2017> <09:14:05>      3      1.35596060      1.04517403    100.0
 <Feb28-2017> <09:14:05>      4      0.32649935      0.23288809    100.0
 <Feb28-2017> <09:14:05>      5      0.32072222      0.23021072    100.0
 <Feb28-2017> <09:14:05>      6      0.29637899      0.21257226    100.0
 <Feb28-2017> <09:14:05>      7      0.00904537      0.00653757      5.6
 <Feb28-2017> <09:14:05>      8      0.00038970      0.00027675      0.0
 <Feb28-2017> <09:14:05>      9      0.00000358      0.00000254      0.0
 <Feb28-2017> <09:14:05>     10      0.00000000      0.00000000      0.0
 <Feb28-2017> <09:14:05>  SCF converged
 <Feb28-2017> <09:14:05>     11      0.00000000      0.00000000      0.0
 <Feb28-2017> <09:14:05>   Solutions with partially occupied orbitals may not be
 <Feb28-2017> <09:14:05>   lowest in energy. You might consider lowering the
 <Feb28-2017> <09:14:05>   symmetry in the input and explicitly specifying integer
 <Feb28-2017> <09:14:05>   occupations. In that case always check that you obtain
 <Feb28-2017> <09:14:05>   an aufbau solution.
 <Feb28-2017> <09:14:05>  >>>> POPAN
 <Feb28-2017> <09:14:05>  >>>> DEBYE
 <Feb28-2017> <09:14:05>  NORMAL TERMINATION
 <Feb28-2017> <09:14:05>  END
 <Feb28-2017> <09:14:05>  ADF 2016  RunTime: Feb28-2017 09:14:05  Nodes: 1  Procs: 1
 <Feb28-2017> <09:14:05>  Carbon (DZP, 1s frozen)
 <Feb28-2017> <09:14:05>  RunType   : CREATE
 <Feb28-2017> <09:14:05>  Net Charge: 0 (Nuclei minus Electrons)
 <Feb28-2017> <09:14:05>  Symmetry  : ATOM
  Coordinates
    Atom         X           Y           Z   (Angstrom)
    1.C         0.000000    0.000000    0.000000
 <Feb28-2017> <09:14:05>  >>>> CORORT
 <Feb28-2017> <09:14:05>  >>>> CLSMAT
 <Feb28-2017> <09:14:05>  >>>> ORTHON
 <Feb28-2017> <09:14:05>  >>>> GENPT
 <Feb28-2017> <09:14:05>  Block Length=  68
 <Feb28-2017> <09:14:05>  >>>> PTBAS
 <Feb28-2017> <09:14:05>  >>>> CYCLE
 <Feb28-2017> <09:14:05>              |Error|         MaxErr       Wt(A-DIIS)
 <Feb28-2017> <09:14:05>      1      0.00000000      0.00000000
 <Feb28-2017> <09:14:05>      2      0.96171996      0.85251393
 <Feb28-2017> <09:14:05>      3      0.70122507      0.61067572    100.0
 <Feb28-2017> <09:14:05>      4      0.24646296      0.20483885    100.0
 <Feb28-2017> <09:14:05>      5      0.19766983      0.16582971    100.0
 <Feb28-2017> <09:14:05>      6      0.02770515      0.02303326     22.3
 <Feb28-2017> <09:14:05>      7      0.00502085      0.00418817      3.2
 <Feb28-2017> <09:14:05>      8      0.00011337      0.00009436      0.0
 <Feb28-2017> <09:14:05>      9      0.00000023      0.00000019      0.0
 <Feb28-2017> <09:14:05>     10      0.00000000      0.00000000      0.0
 <Feb28-2017> <09:14:05>  SCF converged
 <Feb28-2017> <09:14:05>     11      0.00000000      0.00000000      0.0
 <Feb28-2017> <09:14:05>   Solutions with partially occupied orbitals may not be
 <Feb28-2017> <09:14:05>   lowest in energy. You might consider lowering the
 <Feb28-2017> <09:14:05>   symmetry in the input and explicitly specifying integer
 <Feb28-2017> <09:14:05>   occupations. In that case always check that you obtain
 <Feb28-2017> <09:14:05>   an aufbau solution.
 <Feb28-2017> <09:14:05>  >>>> POPAN
 <Feb28-2017> <09:14:05>  >>>> DEBYE
 <Feb28-2017> <09:14:05>  NORMAL TERMINATION
 <Feb28-2017> <09:14:05>  END


 Parallel Execution: Process Information
 ==============================================================================
 Rank   Node Name                              NodeID   MyNodeRank  NodeMaster
    0   Ubuntu-Lars                               0          0          0
    1   Ubuntu-Lars                               0          1         -1
 ==============================================================================



atoms
      1         C      2.419290      0.606560      0.000000
      2         C      1.671470      1.829570      0.000000
      3         N      1.065290      2.809960      0.000000
      4         H      2.000000      0.000000      1.000000
      5         H      2.000000      0.000000     -1.000000
      6         H      3.600000      0.800000      0.000000
end

constraints
  atom 2
  atom 3
  atom 4
end

geometry
  optim cartesian
end

integration
  accint 6.0
end

scf
  converge 1e-06
  iterations 100
end

xc
  lda
end

Fragments
H t21.H
N t21.N
C t21.C
End
end input

 *******************************************************************************
 *                                                                             *
 *  -------------------------------------                                      *
 *   Amsterdam Density Functional  (ADF)         2016                          *
 *  -------------------------------------                                      *
 *                                               r51252 2016-03-08             *
 *                                                                             *
 *                                                                             *
 *                              =================                              *
 *                              |               |                              *
 *                              |     A D F     |                              *
 *                              |               |                              *
 *                              =================                              *
 *                                                                             *
 *                                                                             *
 *   Online information and documentation:  http://www.scm.com                 *
 *   E-mail:  support@scm.com   info@scm.com                                   *
 *                                                                             *
 *   Scientific publications using ADF results must be properly referenced     *
 *   See the User Manuals (or the web site) for recommended citations          *
 *   The terms and conditions of the End User License Agreement apply to       *
 *   the use of ADF, http://www.scm.com/Sales/LicAgreement.html                *
 *                                                                             *
 **********************  x86_64_linux_intel / intelmpi  ************************
 
 Licensed to: Dr. Rob van Nieuwpoort / eScience Center / Amsterdam / NL
 SCM User ID: u17149
  
 ADF 2016  RunTime: Feb28-2017 09:14:05  Nodes: 1  Procs: 2

 Temporary files are created in /tmp/kid_0.DZ5c63


Communication costs MPI_COMM_WORLD:      0.518 usec per message,   0.0040 usec per 8-byte item
Communication costs for intra-node:      0.528 usec per message,   0.0038 usec per 8-byte item

 *** (NO TITLE) ***



 ===========================
 A T T A C H E D   F I L E S
 ===========================
  



 ===============================
 M O D E L   P A R A M E T E R S
 ===============================
  
 DENSITY FUNCTIONAL POTENTIAL (scf)
    LDA:                               VWN                                      
    Gradient Corrections:              ---                                      

 SPIN  (restricted / unrestr.)
    Molecule:                          Restricted                               
    Fragments:                         Restricted                               

 OTHER ASPECTS
    Relativistic Corrections:          ---                                      

[...]
 <Feb28-2017> <09:14:50>  gradient max                        0.03993691
 <Feb28-2017> <09:14:50>  gradient rms                        0.01292308
 <Feb28-2017> <09:14:50>  cart. step max                      0.08116113     0.01000000    F
 <Feb28-2017> <09:14:50>  cart. step rms                      0.04111670     0.00666667    F
  Coordinates in Geometry Cycle 27
    Atom         X           Y           Z   (Angstrom)
    1.C         2.248652    0.510385    0.000000
    2.C         1.671470    1.829570    0.000000
    3.N         1.065290    2.809960    0.000000
    4.H         1.932759   -0.040416    0.918839
    5.H         1.932759   -0.040416   -0.918839
    6.H         3.349764    0.564859    0.000000
 <Feb28-2017> <09:14:50>  >>>> CORORT
 <Feb28-2017> <09:14:50>  >>>> CLSMAT
 <Feb28-2017> <09:14:50>  >>>> ORTHON
 <Feb28-2017> <09:14:50>  >>>> GENPT
 <Feb28-2017> <09:14:50>  Acc.Num.Int.=   6.000
 <Feb28-2017> <09:14:50>  Block Length= 128
 <Feb28-2017> <09:14:51>  >>>> PTBAS
 <Feb28-2017> <09:14:51>  >>>> CYCLE
 <Feb28-2017> <09:14:51>              |Error|         MaxErr       Wt(A-DIIS)
 <Feb28-2017> <09:14:51>      1      0.00000015      0.00000005
 <Feb28-2017> <09:14:51>      2      0.00000051      0.00000019    100.0
 <Feb28-2017> <09:14:51>  SCF converged
 <Feb28-2017> <09:14:51>      3      0.00000180      0.00000067    100.0
 <Feb28-2017> <09:14:51>  >>>> TOTEN
 <Feb28-2017> <09:14:52>  >>>> POPAN
 <Feb28-2017> <09:14:52>  >>>> DEBYE
 <Feb28-2017> <09:14:52>  >>>> ENGRAD
 <Feb28-2017> <09:14:52>  current energy                               -1.40893940 Hartree
 <Feb28-2017> <09:14:52>  energy change                       0.00000000     0.00100000    T
 <Feb28-2017> <09:14:52>  constrained gradient max            0.28983165     0.00100000    F
 <Feb28-2017> <09:14:52>  constrained gradient rms            0.07773098     0.00066667    F
 <Feb28-2017> <09:14:52>  gradient max                        0.03993691
 <Feb28-2017> <09:14:52>  gradient rms                        0.01292308
 <Feb28-2017> <09:14:52>  cart. step max                      0.08116113     0.01000000    F
 <Feb28-2017> <09:14:52>  cart. step rms                      0.04111669     0.00666667    F
  Coordinates in Geometry Cycle 28
    Atom         X           Y           Z   (Angstrom)
    1.C         2.248652    0.510385    0.000000
    2.C         1.671470    1.829570    0.000000
    3.N         1.065290    2.809960    0.000000
    4.H         1.932759   -0.040416    0.918839
    5.H         1.932759   -0.040416   -0.918839
    6.H         3.349764    0.564859    0.000000
 <Feb28-2017> <09:14:52>  >>>> CORORT
 <Feb28-2017> <09:14:52>  >>>> CLSMAT
 <Feb28-2017> <09:14:52>  >>>> ORTHON
 <Feb28-2017> <09:14:52>  >>>> GENPT
 <Feb28-2017> <09:14:52>  Acc.Num.Int.=   6.000
 <Feb28-2017> <09:14:52>  Block Length= 128
 <Feb28-2017> <09:14:52>  >>>> PTBAS
 <Feb28-2017> <09:14:52>  >>>> CYCLE
 <Feb28-2017> <09:14:53>              |Error|         MaxErr       Wt(A-DIIS)
 <Feb28-2017> <09:14:53>      1      0.00000063      0.00000024
 <Feb28-2017> <09:14:53>      2      0.00000223      0.00000084    100.0
 <Feb28-2017> <09:14:53>  SCF converged
 <Feb28-2017> <09:14:53>      3      0.00000789      0.00000295    100.0
 <Feb28-2017> <09:14:53>  >>>> TOTEN
 <Feb28-2017> <09:14:53>  >>>> POPAN
 <Feb28-2017> <09:14:53>  >>>> DEBYE
 <Feb28-2017> <09:14:53>  >>>> ENGRAD
 <Feb28-2017> <09:14:54>  current energy                               -1.40893940 Hartree
 <Feb28-2017> <09:14:54>  energy change                       0.00000000     0.00100000    T
 <Feb28-2017> <09:14:54>  constrained gradient max            0.28983162     0.00100000    F
 <Feb28-2017> <09:14:54>  constrained gradient rms            0.07773097     0.00066667    F
 <Feb28-2017> <09:14:54>  gradient max                        0.03993769
 <Feb28-2017> <09:14:54>  gradient rms                        0.01292324
 <Feb28-2017> <09:14:54>  cart. step max                      0.08116166     0.01000000    F
 <Feb28-2017> <09:14:54>  cart. step rms                      0.04111680     0.00666667    F
  Coordinates in Geometry Cycle 29
    Atom         X           Y           Z   (Angstrom)
    1.C         2.248652    0.510386    0.000000
    2.C         1.671470    1.829570    0.000000
    3.N         1.065290    2.809960    0.000000
    4.H         1.932759   -0.040416    0.918839
    5.H         1.932759   -0.040416   -0.918839
    6.H         3.349764    0.564858    0.000000
 <Feb28-2017> <09:14:54>  >>>> CORORT
 <Feb28-2017> <09:14:54>  >>>> CLSMAT
 <Feb28-2017> <09:14:54>  >>>> ORTHON
 <Feb28-2017> <09:14:54>  >>>> GENPT
 <Feb28-2017> <09:14:54>  Acc.Num.Int.=   6.000
 <Feb28-2017> <09:14:54>  Block Length= 128
 <Feb28-2017> <09:14:54>  >>>> PTBAS
 <Feb28-2017> <09:14:54>  >>>> CYCLE
 <Feb28-2017> <09:14:54>              |Error|         MaxErr       Wt(A-DIIS)
 <Feb28-2017> <09:14:54>      1      0.00002787      0.00001039
 <Feb28-2017> <09:14:54>      2      0.00009797      0.00003666    100.0
 <Feb28-2017> <09:14:54>      3      0.00000917      0.00000342    100.0
 <Feb28-2017> <09:14:55>      4      0.00003234      0.00001210      0.0
 <Feb28-2017> <09:14:55>      5      0.00000006      0.00000002      0.0
 <Feb28-2017> <09:14:55>  SCF converged
 <Feb28-2017> <09:14:55>      6      0.00000001      0.00000000      0.0
 <Feb28-2017> <09:14:55>  >>>> TOTEN
 <Feb28-2017> <09:14:55>  >>>> POPAN
 <Feb28-2017> <09:14:55>  >>>> DEBYE
 <Feb28-2017> <09:14:55>  >>>> ENGRAD
 <Feb28-2017> <09:14:56>  current energy                               -1.40893941 Hartree
 <Feb28-2017> <09:14:56>  energy change                      -0.00000001     0.00100000    T
 <Feb28-2017> <09:14:56>  constrained gradient max            0.28983259     0.00100000    F
 <Feb28-2017> <09:14:56>  constrained gradient rms            0.07773114     0.00066667    F
 <Feb28-2017> <09:14:56>  gradient max                        0.03993605
 <Feb28-2017> <09:14:56>  gradient rms                        0.01292290
 <Feb28-2017> <09:14:56>  cart. step max                      0.08116139     0.01000000    F
 <Feb28-2017> <09:14:56>  cart. step rms                      0.04111680     0.00666667    F
  Coordinates in Geometry Cycle 30
    Atom         X           Y           Z   (Angstrom)
    1.C         2.248652    0.510386    0.000000
    2.C         1.671470    1.829570    0.000000
    3.N         1.065290    2.809960    0.000000
    4.H         1.932759   -0.040416    0.918839
    5.H         1.932759   -0.040416   -0.918839
    6.H         3.349764    0.564858    0.000000
 <Feb28-2017> <09:14:56>  >>>> CORORT
 <Feb28-2017> <09:14:56>  >>>> CLSMAT
 <Feb28-2017> <09:14:56>  >>>> ORTHON
 <Feb28-2017> <09:14:56>  >>>> GENPT
 <Feb28-2017> <09:14:56>  Acc.Num.Int.=   6.000
 <Feb28-2017> <09:14:56>  Block Length= 128
 <Feb28-2017> <09:14:56>  >>>> PTBAS
 <Feb28-2017> <09:14:56>  >>>> CYCLE
 <Feb28-2017> <09:14:56>              |Error|         MaxErr       Wt(A-DIIS)
 <Feb28-2017> <09:14:56>      1      0.00000032      0.00000008
 <Feb28-2017> <09:14:56>      2      0.00000024      0.00000009    100.0
 <Feb28-2017> <09:14:56>  SCF converged
 <Feb28-2017> <09:14:56>      3      0.00000081      0.00000030    100.0
 <Feb28-2017> <09:14:56>  >>>> TOTEN
 <Feb28-2017> <09:14:57>  >>>> POPAN
 <Feb28-2017> <09:14:57>  >>>> DEBYE
 <Feb28-2017> <09:14:57>  >>>> ENGRAD
 <Feb28-2017> <09:14:57>  current energy                               -1.40893941 Hartree
 <Feb28-2017> <09:14:57>  energy change                       0.00000001     0.00100000    T
 <Feb28-2017> <09:14:57>  constrained gradient max            0.28983232     0.00100000    F
 <Feb28-2017> <09:14:57>  constrained gradient rms            0.07773115     0.00066667    F
 <Feb28-2017> <09:14:57>  gradient max                        0.03993648
 <Feb28-2017> <09:14:57>  gradient rms                        0.01292299
 <Feb28-2017> <09:14:57>  cart. step max                      0.08116132     0.01000000    F
 <Feb28-2017> <09:14:57>  cart. step rms                      0.04111676     0.00666667    F
  Coordinates in Geometry Cycle 31
    Atom         X           Y           Z   (Angstrom)
    1.C         2.248652    0.510385    0.000000
    2.C         1.671470    1.829570    0.000000
    3.N         1.065290    2.809960    0.000000
    4.H         1.932759   -0.040416    0.918839
    5.H         1.932759   -0.040416   -0.918839
    6.H         3.349764    0.564858    0.000000
 <Feb28-2017> <09:14:57>  >>>> CORORT
 <Feb28-2017> <09:14:57>  >>>> CLSMAT
 <Feb28-2017> <09:14:57>  >>>> ORTHON
 <Feb28-2017> <09:14:57>  >>>> GENPT
 <Feb28-2017> <09:14:57>  Acc.Num.Int.=   6.000
 <Feb28-2017> <09:14:57>  Block Length= 128
 <Feb28-2017> <09:14:57>  >>>> PTBAS
 <Feb28-2017> <09:14:58>  >>>> CYCLE
 <Feb28-2017> <09:14:58>              |Error|         MaxErr       Wt(A-DIIS)
 <Feb28-2017> <09:14:58>      1      0.00000048      0.00000012
 <Feb28-2017> <09:14:58>      2      0.00000121      0.00000046    100.0
 <Feb28-2017> <09:14:58>  SCF converged
 <Feb28-2017> <09:14:58>      3      0.00000429      0.00000161    100.0
 <Feb28-2017> <09:14:58>  >>>> TOTEN
 <Feb28-2017> <09:14:58>  >>>> POPAN
 <Feb28-2017> <09:14:58>  >>>> DEBYE
 <Feb28-2017> <09:14:58>  >>>> ENGRAD
 <Feb28-2017> <09:14:59>  current energy                               -1.40893940 Hartree
 <Feb28-2017> <09:14:59>  energy change                       0.00000001     0.00100000    T
 <Feb28-2017> <09:14:59>  constrained gradient max            0.28983191     0.00100000    F
 <Feb28-2017> <09:14:59>  constrained gradient rms            0.07773109     0.00066667    F
 <Feb28-2017> <09:14:59>  gradient max                        0.03993691
 <Feb28-2017> <09:14:59>  gradient rms                        0.01292308
 <Feb28-2017> <09:14:59>  cart. step max                      0.08116120     0.01000000    F
 <Feb28-2017> <09:14:59>  cart. step rms                      0.04111673     0.00666667    F
  Coordinates in Geometry Cycle 32
    Atom         X           Y           Z   (Angstrom)
    1.C         2.248652    0.510385    0.000000
    2.C         1.671470    1.829570    0.000000
    3.N         1.065290    2.809960    0.000000
    4.H         1.932759   -0.040416    0.918839
    5.H         1.932759   -0.040416   -0.918839
    6.H         3.349764    0.564858    0.000000
 <Feb28-2017> <09:14:59>  >>>> CORORT
 <Feb28-2017> <09:14:59>  >>>> CLSMAT
 <Feb28-2017> <09:14:59>  >>>> ORTHON
 <Feb28-2017> <09:14:59>  >>>> GENPT
 <Feb28-2017> <09:14:59>  Acc.Num.Int.=   6.000
 <Feb28-2017> <09:14:59>  Block Length= 128
 <Feb28-2017> <09:14:59>  >>>> PTBAS
 <Feb28-2017> <09:14:59>  >>>> CYCLE
 <Feb28-2017> <09:14:59>              |Error|         MaxErr       Wt(A-DIIS)
 <Feb28-2017> <09:14:59>      1      0.00000152      0.00000057
 <Feb28-2017> <09:14:59>      2      0.00000538      0.00000201    100.0
 <Feb28-2017> <09:14:59>      3      0.00001899      0.00000711    100.0
 <Feb28-2017> <09:15:00>      4      0.00000681      0.00000255      0.0
 <Feb28-2017> <09:15:00>      5      0.00000004      0.00000001      0.0
 <Feb28-2017> <09:15:00>  SCF converged
 <Feb28-2017> <09:15:00>      6      0.00000000      0.00000000      0.0
 <Feb28-2017> <09:15:00>  >>>> TOTEN
 <Feb28-2017> <09:15:00>  >>>> POPAN
 <Feb28-2017> <09:15:00>  >>>> DEBYE
 <Feb28-2017> <09:15:00>  >>>> ENGRAD
 <Feb28-2017> <09:15:01>  current energy                               -1.40893940 Hartree
 <Feb28-2017> <09:15:01>  energy change                      -0.00000000     0.00100000    T
 <Feb28-2017> <09:15:01>  constrained gradient max            0.28983184     0.00100000    F
 <Feb28-2017> <09:15:01>  constrained gradient rms            0.07773104     0.00066667    F
 <Feb28-2017> <09:15:01>  gradient max                        0.03993687
 <Feb28-2017> <09:15:01>  gradient rms                        0.01292307
 <Feb28-2017> <09:15:01>  cart. step max                      0.08116118     0.01000000    F
 <Feb28-2017> <09:15:01>  cart. step rms                      0.04111671     0.00666667    F
  Coordinates in Geometry Cycle 33
    Atom         X           Y           Z   (Angstrom)
    1.C         2.248652    0.510385    0.000000
    2.C         1.671470    1.829570    0.000000
    3.N         1.065290    2.809960    0.000000
    4.H         1.932759   -0.040416    0.918839
    5.H         1.932759   -0.040416   -0.918839
    6.H         3.349764    0.564858    0.000000
 <Feb28-2017> <09:15:01>  >>>> CORORT
 <Feb28-2017> <09:15:01>  >>>> CLSMAT
 <Feb28-2017> <09:15:01>  >>>> ORTHON
 <Feb28-2017> <09:15:01>  >>>> GENPT
 <Feb28-2017> <09:15:01>  Acc.Num.Int.=   6.000
 <Feb28-2017> <09:15:01>  Block Length= 128
 <Feb28-2017> <09:15:01>  >>>> PTBAS
 <Feb28-2017> <09:15:01>  >>>> CYCLE
 <Feb28-2017> <09:15:01>              |Error|         MaxErr       Wt(A-DIIS)
 <Feb28-2017> <09:15:01>      1      0.00000006      0.00000001
 <Feb28-2017> <09:15:01>      2      0.00000004      0.00000001    100.0
 <Feb28-2017> <09:15:01>  SCF converged
 <Feb28-2017> <09:15:01>      3      0.00000013      0.00000005    100.0
 <Feb28-2017> <09:15:01>  >>>> TOTEN
 <Feb28-2017> <09:15:02>  >>>> POPAN
 <Feb28-2017> <09:15:02>  >>>> DEBYE
 <Feb28-2017> <09:15:02>  >>>> ENGRAD
 <Feb28-2017> <09:15:02>  current energy                               -1.40893940 Hartree
 <Feb28-2017> <09:15:02>  energy change                       0.00000000     0.00100000    T
 <Feb28-2017> <09:15:02>  constrained gradient max            0.28983172     0.00100000    F
 <Feb28-2017> <09:15:02>  constrained gradient rms            0.07773101     0.00066667    F
 <Feb28-2017> <09:15:02>  gradient max                        0.03993690
 <Feb28-2017> <09:15:02>  gradient rms                        0.01292308
 <Feb28-2017> <09:15:02>  cart. step max                      0.08116115     0.01000000    F
 <Feb28-2017> <09:15:02>  cart. step rms                      0.04111670     0.00666667    F
  Coordinates in Geometry Cycle 34
    Atom         X           Y           Z   (Angstrom)
    1.C         2.248652    0.510385    0.000000
    2.C         1.671470    1.829570    0.000000
    3.N         1.065290    2.809960    0.000000
    4.H         1.932759   -0.040416    0.918839
    5.H         1.932759   -0.040416   -0.918839
    6.H         3.349764    0.564859    0.000000
 <Feb28-2017> <09:15:02>  >>>> CORORT
 <Feb28-2017> <09:15:02>  >>>> CLSMAT
 <Feb28-2017> <09:15:02>  >>>> ORTHON
 <Feb28-2017> <09:15:02>  >>>> GENPT
 <Feb28-2017> <09:15:02>  Acc.Num.Int.=   6.000
 <Feb28-2017> <09:15:02>  Block Length= 128
 <Feb28-2017> <09:15:03>  >>>> PTBAS
 <Feb28-2017> <09:15:03>  >>>> CYCLE
 <Feb28-2017> <09:15:03>              |Error|         MaxErr       Wt(A-DIIS)
 <Feb28-2017> <09:15:03>      1      0.00000046      0.00000017
 <Feb28-2017> <09:15:03>      2      0.00000162      0.00000061    100.0
 <Feb28-2017> <09:15:03>  SCF converged
 <Feb28-2017> <09:15:03>      3      0.00000573      0.00000214    100.0
 <Feb28-2017> <09:15:03>  >>>> TOTEN
 <Feb28-2017> <09:15:04>  >>>> POPAN
 <Feb28-2017> <09:15:04>  >>>> DEBYE
 <Feb28-2017> <09:15:04>  >>>> ENGRAD
 <Feb28-2017> <09:15:04>  current energy                               -1.40893940 Hartree
 <Feb28-2017> <09:15:04>  energy change                       0.00000000     0.00100000    T
 <Feb28-2017> <09:15:04>  constrained gradient max            0.28983166     0.00100000    F
 <Feb28-2017> <09:15:04>  constrained gradient rms            0.07773098     0.00066667    F
 <Feb28-2017> <09:15:04>  gradient max                        0.03993748
 <Feb28-2017> <09:15:04>  gradient rms                        0.01292320
 <Feb28-2017> <09:15:04>  cart. step max                      0.08116168     0.01000000    F
 <Feb28-2017> <09:15:04>  cart. step rms                      0.04111681     0.00666667    F
  Coordinates in Geometry Cycle 35
    Atom         X           Y           Z   (Angstrom)
    1.C         2.248652    0.510386    0.000000
    2.C         1.671470    1.829570    0.000000
    3.N         1.065290    2.809960    0.000000
    4.H         1.932759   -0.040416    0.918839
    5.H         1.932759   -0.040416   -0.918839
    6.H         3.349764    0.564858    0.000000
 <Feb28-2017> <09:15:04>  >>>> CORORT
 <Feb28-2017> <09:15:04>  >>>> CLSMAT
 <Feb28-2017> <09:15:04>  >>>> ORTHON
 <Feb28-2017> <09:15:04>  >>>> GENPT
 <Feb28-2017> <09:15:04>  Acc.Num.Int.=   6.000
 <Feb28-2017> <09:15:04>  Block Length= 128
 <Feb28-2017> <09:15:04>  >>>> PTBAS
 <Feb28-2017> <09:15:04>  >>>> CYCLE
 <Feb28-2017> <09:15:04>              |Error|         MaxErr       Wt(A-DIIS)
 <Feb28-2017> <09:15:04>      1      0.00002021      0.00000753
 <Feb28-2017> <09:15:04>      2      0.00007100      0.00002657    100.0
 <Feb28-2017> <09:15:05>      3      0.00000665      0.00000248    100.0
 <Feb28-2017> <09:15:05>      4      0.00002343      0.00000877      0.0
 <Feb28-2017> <09:15:05>      5      0.00000005      0.00000001      0.0
 <Feb28-2017> <09:15:05>  SCF converged
 <Feb28-2017> <09:15:05>      6      0.00000000      0.00000000      0.0
 <Feb28-2017> <09:15:05>  >>>> TOTEN
 <Feb28-2017> <09:15:05>  >>>> POPAN
 <Feb28-2017> <09:15:05>  >>>> DEBYE
 <Feb28-2017> <09:15:05>  >>>> ENGRAD
 <Feb28-2017> <09:15:06>  current energy                               -1.40893941 Hartree
 <Feb28-2017> <09:15:06>  energy change                      -0.00000001     0.00100000    T
 <Feb28-2017> <09:15:06>  constrained gradient max            0.28983264     0.00100000    F
 <Feb28-2017> <09:15:06>  constrained gradient rms            0.07773117     0.00066667    F
 <Feb28-2017> <09:15:06>  gradient max                        0.03993624
 <Feb28-2017> <09:15:06>  gradient rms                        0.01292294
 <Feb28-2017> <09:15:06>  cart. step max                      0.08116140     0.01000000    F
 <Feb28-2017> <09:15:06>  cart. step rms                      0.04111679     0.00666667    F
  Coordinates in Geometry Cycle 36
    Atom         X           Y           Z   (Angstrom)
    1.C         2.248652    0.510386    0.000000
    2.C         1.671470    1.829570    0.000000
    3.N         1.065290    2.809960    0.000000
    4.H         1.932759   -0.040416    0.918839
    5.H         1.932759   -0.040416   -0.918839
    6.H         3.349764    0.564858    0.000000
 <Feb28-2017> <09:15:06>  >>>> CORORT
 <Feb28-2017> <09:15:06>  >>>> CLSMAT
 <Feb28-2017> <09:15:06>  >>>> ORTHON
 <Feb28-2017> <09:15:06>  >>>> GENPT
 <Feb28-2017> <09:15:06>  Acc.Num.Int.=   6.000
 <Feb28-2017> <09:15:06>  Block Length= 128
 <Feb28-2017> <09:15:06>  >>>> PTBAS
 <Feb28-2017> <09:15:06>  >>>> CYCLE
 <Feb28-2017> <09:15:06>              |Error|         MaxErr       Wt(A-DIIS)
 <Feb28-2017> <09:15:06>      1      0.00000031      0.00000008
 <Feb28-2017> <09:15:06>      2      0.00000022      0.00000008    100.0
 <Feb28-2017> <09:15:06>  SCF converged
 <Feb28-2017> <09:15:07>      3      0.00000075      0.00000028    100.0
 <Feb28-2017> <09:15:07>  >>>> TOTEN
 <Feb28-2017> <09:15:07>  >>>> POPAN
 <Feb28-2017> <09:15:07>  >>>> DEBYE
 <Feb28-2017> <09:15:07>  >>>> ENGRAD
 <Feb28-2017> <09:15:07>  current energy                               -1.40893940 Hartree
 <Feb28-2017> <09:15:07>  energy change                       0.00000001     0.00100000    T
 <Feb28-2017> <09:15:07>  constrained gradient max            0.28983226     0.00100000    F
 <Feb28-2017> <09:15:07>  constrained gradient rms            0.07773115     0.00066667    F
 <Feb28-2017> <09:15:07>  gradient max                        0.03993657
 <Feb28-2017> <09:15:07>  gradient rms                        0.01292301
 <Feb28-2017> <09:15:07>  cart. step max                      0.08116130     0.01000000    F
 <Feb28-2017> <09:15:07>  cart. step rms                      0.04111674     0.00666667    F
 <Feb28-2017> <09:15:07>  ERROR: GEOMETRY DID NOT CONVERGE
 <Feb28-2017> <09:15:07>  NORMAL TERMINATION
 <Feb28-2017> <09:15:07>  END
