
  **** **** ******  **  PROGRAM STARTED AT               2020-03-19 17:56:40.133
 ***** ** ***  *** **   PROGRAM STARTED ON                     bass-macbook.home
 **    ****   ******    PROGRAM STARTED BY                              bvanbeek
 ***** **    ** ** **   PROGRAM PROCESS ID                                 85992
  **** **  *******  **  PROGRAM STARTED IN /Users/bvanbeek/Documents/GitHub/qmfl
                                           ows/test/test_files/plams_workdir.007
                                           /cp2k_mm_freq

 CP2K| version string:                                          CP2K version 6.1
 CP2K| source code revision number:                                    svn:18464
 CP2K| cp2kflags: omp no_statm_access accelerate                                
 CP2K| is freely available from                            https://www.cp2k.org/
 CP2K| Program compiled at                         Fri Apr 19 11:24:34 CEST 2019
 CP2K| Program compiled on                                         192.168.1.124
 CP2K| Program compiled for                       Darwin-IntelMacintosh-gfortran
 CP2K| Data directory path            /Users/bvanbeek/Documents/GitHub/cp2k/data
 CP2K| Input file name                                              cp2k-r-0.inp

 GLOBAL| Force Environment number                                              1
 GLOBAL| Basis set file name                                           BASIS_SET
 GLOBAL| Potential file name                                           POTENTIAL
 GLOBAL| MM Potential file name                                     MM_POTENTIAL
 GLOBAL| Coordinate file name                                      __STD_INPUT__
 GLOBAL| Method name                                                        CP2K
 GLOBAL| Project name                                                   cp2k-r-0
 GLOBAL| Preferred FFT library                                             FFTW3
 GLOBAL| Preferred diagonalization lib.                                       SL
 GLOBAL| Run type                                           VIBRATIONAL_ANALYSIS
 GLOBAL| All-to-all communication in single precision                          F
 GLOBAL| FFTs using library dependent lengths                                  F
 GLOBAL| Global print level                                                  LOW
 GLOBAL| Total number of message passing processes                             1
 GLOBAL| Number of threads for this process                                    4
 GLOBAL| This output is from process                                           0
 GLOBAL| CPU model name : UNKNOWN

 MEMORY| system memory details [Kb]
 MEMORY|                        rank 0           min           max       average
 MEMORY| MemTotal                    0             0             0             0
 MEMORY| MemFree                     0             0             0             0
 MEMORY| Buffers                     0             0             0             0
 MEMORY| Cached                      0             0             0             0
 MEMORY| Slab                        0             0             0             0
 MEMORY| SReclaimable                0             0             0             0
 MEMORY| MemLikelyFree               0             0             0             0

 WARNING : FFT library FFTW3 is not available  Trying FFTSG as a default


                      ************* ******** ***********   
                     ************* **********************  
                     ****     **** ****      ***********   
                     ******** ****  *******     ****       
                     *******  ****   *******   ****        
                     ****     ****       ****  ****        
                     ****     **** **********  ****        
                      ****     **** ********    ****       
                     FRONTIERS IN SIMULATION TECHNOLOGY    
                                                           
                        C.J. Mundy, S. Balasubramanian,    
                     Ken Bagchi, J. Hutter, Ari Seitsonen  
                      IFW Kuo, T. Laino, J. VandeVondele   
                                 Version 1.0               

                                                           

 EWALD|                                                                 not used
     CHM BOND            1 C2O3 C331    200.00000000000000        1.5220000000000000     
     CHM BOND            2 C331 HGA3    322.00000000000000        1.1110000000000000     
     CHM BOND            3 C2O3 O2D2    525.00000000000000        1.2600000000000000     
     CHM BEND            1 O2D2 C2O3 C331    40.000000000000000        116.00000000000000     
     CHM BEND            2 C2O3 C331 HGA3    33.000000000000000        109.50000000000000     
     CHM BEND            3 HGA3 C331 HGA3    35.500000000000000        108.40000000000001     
     CHM BEND            4 O2D2 C2O3 O2D2    100.00000000000000        128.00000000000000     
     CHM TORSION            1 O2D2 C2O3 C331 HGA3    5.0000000000000003E-002           6   180.00000000000000     
     CHM IMPROPERS            1 C2O3 C331 O2D2 O2D2    107.00000000000000        0.0000000000000000     
     CHM NONBOND            1 C2O3   -7.0000000000000007E-002   2.0000000000000000     
     CHM NONBOND            2 C331   -7.8000000000000000E-002   2.0499999999999998     
     CHM NONBOND            3 HGA3   -2.4000000000000000E-002   1.3400000000000001     
     CHM NONBOND            4 O2D2  -0.12000000000000000        1.7000000000000000     

 FORCEFIELD| WARNING: A non Critical ForceField parameter is missing! CP2K GOES!
 FORCEFIELD| Non critical parameters are:Urey-Bradley,Torsions,Impropers, Opbends and 1-4
 FORCEFIELD| All missing parameters will not contribute to the potential energy!

 FORCEFIELD| Missing Urey-Bradley      (C2O3,C331,HGA3)                         
 FORCEFIELD| Missing Urey-Bradley      (O2D2,C2O3,C331)                         
 FORCEFIELD| Missing Urey-Bradley      (O2D2,C2O3,O2D2)                         
 FORCEFIELD| Missing Urey-Bradley      (HGA3,C331,HGA3)                         
 FORCEFIELD| Missing Out of plane bend (C331,O2D2,O2D2,C2O3)                    
 Charge Checking ::C2O3CD                                                                              
 Charge Checking ::CDCD                                                                              

 *** WARNING in force_fields_all.F:3322 :: Multiple Charge declarations: ( ***
 *** CD ) overwriting!                                                     ***

 Charge Checking ::O2D2CD                                                                              
 Charge Checking ::SECD                                                                              
 Charge Checking ::C2O3SE                                                                              
 Charge Checking ::CDSE                                                                              
 Charge Checking ::O2D2SE                                                                              
 Charge Checking ::SESE                                                                              

 *** WARNING in force_fields_all.F:3322 :: Multiple Charge declarations: ( ***
 *** SE ) overwriting!                                                     ***

 Charge Checking ::C2O3C331                                                                            
 Charge Checking ::CDC331                                                                            
 Charge Checking ::O2D2C331                                                                            
 Charge Checking ::SEC331                                                                            
 Charge Checking ::C2O3C2O3                                                                            

 *** WARNING in force_fields_all.F:3322 :: Multiple Charge declarations: ( ***
 *** C2O3 ) overwriting!                                                   ***

 Charge Checking ::CDC2O3                                                                            
 Charge Checking ::O2D2C2O3                                                                            
 Charge Checking ::SEC2O3                                                                            
 Charge Checking ::C2O3O2D2                                                                            
 Charge Checking ::CDO2D2                                                                            
 Charge Checking ::O2D2O2D2                                                                            

 *** WARNING in force_fields_all.F:3322 :: Multiple Charge declarations: ( ***
 *** O2D2 ) overwriting!                                                   ***

 Charge Checking ::SEO2D2                                                                            
 Charge Checking ::C2O3HGA3                                                                            
 Charge Checking ::CDHGA3                                                                            
 Charge Checking ::O2D2HGA3                                                                            
 Charge Checking ::SEHGA3                                                                            
 CHARGE_INFO| Total Charge of the Classical System:                     0.000000
 Matching kinds for MM_RADIUS :: 'CD' with 'C2O3'
 Matching kinds for MM_RADIUS :: 'CD' with 'C331'
 Matching kinds for MM_RADIUS :: 'CD' with 'CD'
 Matching kinds for MM_RADIUS :: 'CD' with 'HGA3'
 Matching kinds for MM_RADIUS :: 'CD' with 'O2D2'
 Matching kinds for MM_RADIUS :: 'CD' with 'SE'
 Matching kinds for MM_RADIUS :: 'SE' with 'C2O3'
 Matching kinds for MM_RADIUS :: 'SE' with 'C331'
 Matching kinds for MM_RADIUS :: 'SE' with 'CD'
 Matching kinds for MM_RADIUS :: 'SE' with 'HGA3'
 Matching kinds for MM_RADIUS :: 'SE' with 'O2D2'
 Matching kinds for MM_RADIUS :: 'SE' with 'SE'
 Matching kinds for MM_RADIUS :: 'C331' with 'C2O3'
 Matching kinds for MM_RADIUS :: 'C331' with 'C331'
 Matching kinds for MM_RADIUS :: 'C331' with 'CD'
 Matching kinds for MM_RADIUS :: 'C331' with 'HGA3'
 Matching kinds for MM_RADIUS :: 'C331' with 'O2D2'
 Matching kinds for MM_RADIUS :: 'C331' with 'SE'
 Matching kinds for MM_RADIUS :: 'C2O3' with 'C2O3'
 Matching kinds for MM_RADIUS :: 'C2O3' with 'C331'
 Matching kinds for MM_RADIUS :: 'C2O3' with 'CD'
 Matching kinds for MM_RADIUS :: 'C2O3' with 'HGA3'
 Matching kinds for MM_RADIUS :: 'C2O3' with 'O2D2'
 Matching kinds for MM_RADIUS :: 'C2O3' with 'SE'
 Matching kinds for MM_RADIUS :: 'O2D2' with 'C2O3'
 Matching kinds for MM_RADIUS :: 'O2D2' with 'C331'
 Matching kinds for MM_RADIUS :: 'O2D2' with 'CD'
 Matching kinds for MM_RADIUS :: 'O2D2' with 'HGA3'
 Matching kinds for MM_RADIUS :: 'O2D2' with 'O2D2'
 Matching kinds for MM_RADIUS :: 'O2D2' with 'SE'
 Matching kinds for MM_RADIUS :: 'HGA3' with 'C2O3'
 Matching kinds for MM_RADIUS :: 'HGA3' with 'C331'
 Matching kinds for MM_RADIUS :: 'HGA3' with 'CD'
 Matching kinds for MM_RADIUS :: 'HGA3' with 'HGA3'
 Matching kinds for MM_RADIUS :: 'HGA3' with 'O2D2'
 Matching kinds for MM_RADIUS :: 'HGA3' with 'SE'
 Total number of particles with a shell ::            0

 FORCEFIELD| WARNING: A non Critical ForceField parameter is missing! CP2K GOES!
 FORCEFIELD| Non critical parameters are:Urey-Bradley,Torsions,Impropers, Opbends and 1-4
 FORCEFIELD| All missing parameters will not contribute to the potential energy!

 FORCEFIELD| Missing Spline_Bond_Env   (  CD,  CD)                              
                                                                                
                                                                                
                                                                                
                                                                                
                                                                                
                                                                                
                                                                                
                                                                                
                                                                                
                                                                                

 SPLINE_INFO| Generating 21 splines for NONBONDED14 interactions 
              Due to 6 different atomic kinds
  ...2  ...4  ...6  ...8  ...10  ...12  ...14  ...16  ...18  ...20
 SPLINE_INFO| Number of unique splines computed:            11
 SPLINE_INFO| Done
     TESTING CDCD with CDC2O3
     TESTING CDCD with CDC331
     TESTING CDCD with CDCD
     FOUND CD CD
     TESTING CDCD with CDHGA3
     TESTING CDCD with CDO2D2
     TESTING CDCD with CDSE
     TESTING CDCD with SEC2O3
     TESTING CDCD with SEC331
     TESTING CDCD with SEHGA3
     TESTING CDCD with SEO2D2
     TESTING CDCD with SESE
     TESTING CDSE with CDC2O3
     TESTING CDSE with CDC331
     TESTING CDSE with CDCD
     TESTING CDSE with CDHGA3
     TESTING CDSE with CDO2D2
     TESTING CDSE with CDSE
     FOUND CD SE
     TESTING CDSE with SEC2O3
     TESTING CDSE with SEC331
     TESTING CDSE with SEHGA3
     TESTING CDSE with SEO2D2
     TESTING CDSE with SESE
     TESTING CDC331 with CDC2O3
     TESTING CDC331 with CDC331
     FOUND CD C331
     TESTING CDC331 with CDCD
     TESTING CDC331 with CDHGA3
     TESTING CDC331 with CDO2D2
     TESTING CDC331 with CDSE
     TESTING CDC331 with SEC2O3
     TESTING CDC331 with SEC331
     TESTING CDC331 with SEHGA3
     TESTING CDC331 with SEO2D2
     TESTING CDC331 with SESE
     TESTING CDC2O3 with CDC2O3
     FOUND CD C2O3
     TESTING CDC2O3 with CDC331
     TESTING CDC2O3 with CDCD
     TESTING CDC2O3 with CDHGA3
     TESTING CDC2O3 with CDO2D2
     TESTING CDC2O3 with CDSE
     TESTING CDC2O3 with SEC2O3
     TESTING CDC2O3 with SEC331
     TESTING CDC2O3 with SEHGA3
     TESTING CDC2O3 with SEO2D2
     TESTING CDC2O3 with SESE
     TESTING CDO2D2 with CDC2O3
     TESTING CDO2D2 with CDC331
     TESTING CDO2D2 with CDCD
     TESTING CDO2D2 with CDHGA3
     TESTING CDO2D2 with CDO2D2
     FOUND CD O2D2
     TESTING CDO2D2 with CDSE
     TESTING CDO2D2 with SEC2O3
     TESTING CDO2D2 with SEC331
     TESTING CDO2D2 with SEHGA3
     TESTING CDO2D2 with SEO2D2
     TESTING CDO2D2 with SESE
     TESTING CDHGA3 with CDC2O3
     TESTING CDHGA3 with CDC331
     TESTING CDHGA3 with CDCD
     TESTING CDHGA3 with CDHGA3
     FOUND CD HGA3
     TESTING CDHGA3 with CDO2D2
     TESTING CDHGA3 with CDSE
     TESTING CDHGA3 with SEC2O3
     TESTING CDHGA3 with SEC331
     TESTING CDHGA3 with SEHGA3
     TESTING CDHGA3 with SEO2D2
     TESTING CDHGA3 with SESE
     TESTING SESE with CDC2O3
     TESTING SESE with CDC331
     TESTING SESE with CDCD
     TESTING SESE with CDHGA3
     TESTING SESE with CDO2D2
     TESTING SESE with CDSE
     TESTING SESE with SEC2O3
     TESTING SESE with SEC331
     TESTING SESE with SEHGA3
     TESTING SESE with SEO2D2
     TESTING SESE with SESE
     FOUND SE SE
     TESTING SEC331 with CDC2O3
     TESTING SEC331 with CDC331
     TESTING SEC331 with CDCD
     TESTING SEC331 with CDHGA3
     TESTING SEC331 with CDO2D2
     TESTING SEC331 with CDSE
     TESTING SEC331 with SEC2O3
     TESTING SEC331 with SEC331
     FOUND SE C331
     TESTING SEC331 with SEHGA3
     TESTING SEC331 with SEO2D2
     TESTING SEC331 with SESE
     TESTING SEC2O3 with CDC2O3
     TESTING SEC2O3 with CDC331
     TESTING SEC2O3 with CDCD
     TESTING SEC2O3 with CDHGA3
     TESTING SEC2O3 with CDO2D2
     TESTING SEC2O3 with CDSE
     TESTING SEC2O3 with SEC2O3
     FOUND SE C2O3
     TESTING SEC2O3 with SEC331
     TESTING SEC2O3 with SEHGA3
     TESTING SEC2O3 with SEO2D2
     TESTING SEC2O3 with SESE
     TESTING SEO2D2 with CDC2O3
     TESTING SEO2D2 with CDC331
     TESTING SEO2D2 with CDCD
     TESTING SEO2D2 with CDHGA3
     TESTING SEO2D2 with CDO2D2
     TESTING SEO2D2 with CDSE
     TESTING SEO2D2 with SEC2O3
     TESTING SEO2D2 with SEC331
     TESTING SEO2D2 with SEHGA3
     TESTING SEO2D2 with SEO2D2
     FOUND SE O2D2
     TESTING SEO2D2 with SESE
     TESTING SEHGA3 with CDC2O3
     TESTING SEHGA3 with CDC331
     TESTING SEHGA3 with CDCD
     TESTING SEHGA3 with CDHGA3
     TESTING SEHGA3 with CDO2D2
     TESTING SEHGA3 with CDSE
     TESTING SEHGA3 with SEC2O3
     TESTING SEHGA3 with SEC331
     TESTING SEHGA3 with SEHGA3
     FOUND SE HGA3
     TESTING SEHGA3 with SEO2D2
     TESTING SEHGA3 with SESE
     TESTING C331C331 with CDC2O3
     TESTING C331C331 with CDC331
     TESTING C331C331 with CDCD
     TESTING C331C331 with CDHGA3
     TESTING C331C331 with CDO2D2
     TESTING C331C331 with CDSE
     TESTING C331C331 with SEC2O3
     TESTING C331C331 with SEC331
     TESTING C331C331 with SEHGA3
     TESTING C331C331 with SEO2D2
     TESTING C331C331 with SESE
     TESTING C331C2O3 with CDC2O3
     TESTING C331C2O3 with CDC331
     TESTING C331C2O3 with CDCD
     TESTING C331C2O3 with CDHGA3
     TESTING C331C2O3 with CDO2D2
     TESTING C331C2O3 with CDSE
     TESTING C331C2O3 with SEC2O3
     TESTING C331C2O3 with SEC331
     TESTING C331C2O3 with SEHGA3
     TESTING C331C2O3 with SEO2D2
     TESTING C331C2O3 with SESE
     TESTING C331O2D2 with CDC2O3
     TESTING C331O2D2 with CDC331
     TESTING C331O2D2 with CDCD
     TESTING C331O2D2 with CDHGA3
     TESTING C331O2D2 with CDO2D2
     TESTING C331O2D2 with CDSE
     TESTING C331O2D2 with SEC2O3
     TESTING C331O2D2 with SEC331
     TESTING C331O2D2 with SEHGA3
     TESTING C331O2D2 with SEO2D2
     TESTING C331O2D2 with SESE
     TESTING C331HGA3 with CDC2O3
     TESTING C331HGA3 with CDC331
     TESTING C331HGA3 with CDCD
     TESTING C331HGA3 with CDHGA3
     TESTING C331HGA3 with CDO2D2
     TESTING C331HGA3 with CDSE
     TESTING C331HGA3 with SEC2O3
     TESTING C331HGA3 with SEC331
     TESTING C331HGA3 with SEHGA3
     TESTING C331HGA3 with SEO2D2
     TESTING C331HGA3 with SESE
     TESTING C2O3C2O3 with CDC2O3
     TESTING C2O3C2O3 with CDC331
     TESTING C2O3C2O3 with CDCD
     TESTING C2O3C2O3 with CDHGA3
     TESTING C2O3C2O3 with CDO2D2
     TESTING C2O3C2O3 with CDSE
     TESTING C2O3C2O3 with SEC2O3
     TESTING C2O3C2O3 with SEC331
     TESTING C2O3C2O3 with SEHGA3
     TESTING C2O3C2O3 with SEO2D2
     TESTING C2O3C2O3 with SESE
     TESTING C2O3O2D2 with CDC2O3
     TESTING C2O3O2D2 with CDC331
     TESTING C2O3O2D2 with CDCD
     TESTING C2O3O2D2 with CDHGA3
     TESTING C2O3O2D2 with CDO2D2
     TESTING C2O3O2D2 with CDSE
     TESTING C2O3O2D2 with SEC2O3
     TESTING C2O3O2D2 with SEC331
     TESTING C2O3O2D2 with SEHGA3
     TESTING C2O3O2D2 with SEO2D2
     TESTING C2O3O2D2 with SESE
     TESTING C2O3HGA3 with CDC2O3
     TESTING C2O3HGA3 with CDC331
     TESTING C2O3HGA3 with CDCD
     TESTING C2O3HGA3 with CDHGA3
     TESTING C2O3HGA3 with CDO2D2
     TESTING C2O3HGA3 with CDSE
     TESTING C2O3HGA3 with SEC2O3
     TESTING C2O3HGA3 with SEC331
     TESTING C2O3HGA3 with SEHGA3
     TESTING C2O3HGA3 with SEO2D2
     TESTING C2O3HGA3 with SESE
     TESTING O2D2O2D2 with CDC2O3
     TESTING O2D2O2D2 with CDC331
     TESTING O2D2O2D2 with CDCD
     TESTING O2D2O2D2 with CDHGA3
     TESTING O2D2O2D2 with CDO2D2
     TESTING O2D2O2D2 with CDSE
     TESTING O2D2O2D2 with SEC2O3
     TESTING O2D2O2D2 with SEC331
     TESTING O2D2O2D2 with SEHGA3
     TESTING O2D2O2D2 with SEO2D2
     TESTING O2D2O2D2 with SESE
     TESTING O2D2HGA3 with CDC2O3
     TESTING O2D2HGA3 with CDC331
     TESTING O2D2HGA3 with CDCD
     TESTING O2D2HGA3 with CDHGA3
     TESTING O2D2HGA3 with CDO2D2
     TESTING O2D2HGA3 with CDSE
     TESTING O2D2HGA3 with SEC2O3
     TESTING O2D2HGA3 with SEC331
     TESTING O2D2HGA3 with SEHGA3
     TESTING O2D2HGA3 with SEO2D2
     TESTING O2D2HGA3 with SESE
     TESTING HGA3HGA3 with CDC2O3
     TESTING HGA3HGA3 with CDC331
     TESTING HGA3HGA3 with CDCD
     TESTING HGA3HGA3 with CDHGA3
     TESTING HGA3HGA3 with CDO2D2
     TESTING HGA3HGA3 with CDSE
     TESTING HGA3HGA3 with SEC2O3
     TESTING HGA3HGA3 with SEC331
     TESTING HGA3HGA3 with SEHGA3
     TESTING HGA3HGA3 with SEO2D2
     TESTING HGA3HGA3 with SESE

 SPLINE_INFO| Generating 21 splines for NONBONDED interactions 
              Due to 6 different atomic kinds
  ...2  ...4  ...6  ...8  ...10  ...12  ...14  ...16  ...18  ...20
 SPLINE_INFO| Number of unique splines computed:            19
 SPLINE_INFO| Done
       atom            1  Cd charge =   0.97680000000000000     
     Mol Kind MOL1 charge =   0.97680000000000000     
       atom            1  Se charge =  -0.97680000000000000     
     Mol Kind MOL2 charge =  -0.97680000000000000     
       atom            1  Cd charge =   0.97680000000000000     
     Mol Kind MOL1 charge =   0.97680000000000000     
       atom            1  Se charge =  -0.97680000000000000     
     Mol Kind MOL2 charge =  -0.97680000000000000     
       atom            1  C331 charge =  -0.34499999999999997     
       atom            2  C2O3 charge =   0.45240000000000002     
       atom            3  O2D2 charge =  -0.47039999999999998     
       atom            4  O2D2 charge =  -0.47039999999999998     
       atom            5  HGA3 charge =   0.11500000000000000     
       atom            6  HGA3 charge =   0.11500000000000000     
       atom            7  HGA3 charge =   0.11500000000000000     
     Mol Kind MOL3 charge =  -0.48839999999999995     
       atom            1  Cd charge =   0.97680000000000000     
       atom            2  Cd charge =   0.97680000000000000     
       atom            3  Cd charge =   0.97680000000000000     
       atom            4  Cd charge =   0.97680000000000000     
       atom            5  Cd charge =   0.97680000000000000     
       atom            6  Cd charge =   0.97680000000000000     
       atom            7  Cd charge =   0.97680000000000000     
       atom            8  Cd charge =   0.97680000000000000     
       atom            9  Cd charge =   0.97680000000000000     
       atom           10  Cd charge =   0.97680000000000000     
       atom           11  Cd charge =   0.97680000000000000     
       atom           12  Cd charge =   0.97680000000000000     
       atom           13  Cd charge =   0.97680000000000000     
       atom           14  Cd charge =   0.97680000000000000     
       atom           15  Cd charge =   0.97680000000000000     
       atom           16  Cd charge =   0.97680000000000000     
       atom           17  Se charge =  -0.97680000000000000     
       atom           18  Se charge =  -0.97680000000000000     
       atom           19  Se charge =  -0.97680000000000000     
       atom           20  Se charge =  -0.97680000000000000     
       atom           21  Se charge =  -0.97680000000000000     
       atom           22  Se charge =  -0.97680000000000000     
       atom           23  Se charge =  -0.97680000000000000     
       atom           24  Se charge =  -0.97680000000000000     
       atom           25  Se charge =  -0.97680000000000000     
       atom           26  Se charge =  -0.97680000000000000     
       atom           27  Se charge =  -0.97680000000000000     
       atom           28  Se charge =  -0.97680000000000000     
       atom           29  Se charge =  -0.97680000000000000     
       atom           30  Cd charge =   0.97680000000000000     
       atom           31  Cd charge =   0.97680000000000000     
       atom           32  Cd charge =   0.97680000000000000     
       atom           33  Cd charge =   0.97680000000000000     
       atom           34  Cd charge =   0.97680000000000000     
       atom           35  Cd charge =   0.97680000000000000     
       atom           36  Cd charge =   0.97680000000000000     
       atom           37  Cd charge =   0.97680000000000000     
       atom           38  Cd charge =   0.97680000000000000     
       atom           39  Cd charge =   0.97680000000000000     
       atom           40  Cd charge =   0.97680000000000000     
       atom           41  Cd charge =   0.97680000000000000     
       atom           42  Cd charge =   0.97680000000000000     
       atom           43  Cd charge =   0.97680000000000000     
       atom           44  Cd charge =   0.97680000000000000     
       atom           45  Cd charge =   0.97680000000000000     
       atom           46  Cd charge =   0.97680000000000000     
       atom           47  Cd charge =   0.97680000000000000     
       atom           48  Cd charge =   0.97680000000000000     
       atom           49  Cd charge =   0.97680000000000000     
       atom           50  Cd charge =   0.97680000000000000     
       atom           51  Cd charge =   0.97680000000000000     
       atom           52  Cd charge =   0.97680000000000000     
       atom           53  Cd charge =   0.97680000000000000     
       atom           54  Cd charge =   0.97680000000000000     
       atom           55  Cd charge =   0.97680000000000000     
       atom           56  Cd charge =   0.97680000000000000     
       atom           57  Cd charge =   0.97680000000000000     
       atom           58  Cd charge =   0.97680000000000000     
       atom           59  Cd charge =   0.97680000000000000     
       atom           60  Cd charge =   0.97680000000000000     
       atom           61  Cd charge =   0.97680000000000000     
       atom           62  Cd charge =   0.97680000000000000     
       atom           63  Cd charge =   0.97680000000000000     
       atom           64  Cd charge =   0.97680000000000000     
       atom           65  Cd charge =   0.97680000000000000     
       atom           66  Cd charge =   0.97680000000000000     
       atom           67  Cd charge =   0.97680000000000000     
       atom           68  Cd charge =   0.97680000000000000     
       atom           69  Cd charge =   0.97680000000000000     
       atom           70  Cd charge =   0.97680000000000000     
       atom           71  Cd charge =   0.97680000000000000     
       atom           72  Cd charge =   0.97680000000000000     
       atom           73  Cd charge =   0.97680000000000000     
       atom           74  Cd charge =   0.97680000000000000     
       atom           75  Cd charge =   0.97680000000000000     
       atom           76  Cd charge =   0.97680000000000000     
       atom           77  Cd charge =   0.97680000000000000     
       atom           78  Cd charge =   0.97680000000000000     
       atom           79  Cd charge =   0.97680000000000000     
       atom           80  Cd charge =   0.97680000000000000     
       atom           81  Cd charge =   0.97680000000000000     
       atom           82  Se charge =  -0.97680000000000000     
       atom           83  Se charge =  -0.97680000000000000     
       atom           84  Se charge =  -0.97680000000000000     
       atom           85  Se charge =  -0.97680000000000000     
       atom           86  Se charge =  -0.97680000000000000     
       atom           87  Se charge =  -0.97680000000000000     
       atom           88  Se charge =  -0.97680000000000000     
       atom           89  Se charge =  -0.97680000000000000     
       atom           90  Se charge =  -0.97680000000000000     
       atom           91  Se charge =  -0.97680000000000000     
       atom           92  Se charge =  -0.97680000000000000     
       atom           93  Se charge =  -0.97680000000000000     
       atom           94  Se charge =  -0.97680000000000000     
       atom           95  Se charge =  -0.97680000000000000     
       atom           96  Se charge =  -0.97680000000000000     
       atom           97  Se charge =  -0.97680000000000000     
       atom           98  Se charge =  -0.97680000000000000     
       atom           99  Se charge =  -0.97680000000000000     
       atom          100  Se charge =  -0.97680000000000000     
       atom          101  Se charge =  -0.97680000000000000     
       atom          102  Se charge =  -0.97680000000000000     
       atom          103  Se charge =  -0.97680000000000000     
       atom          104  Se charge =  -0.97680000000000000     
       atom          105  Se charge =  -0.97680000000000000     
       atom          106  Se charge =  -0.97680000000000000     
       atom          107  Se charge =  -0.97680000000000000     
       atom          108  Se charge =  -0.97680000000000000     
       atom          109  Se charge =  -0.97680000000000000     
       atom          110  Se charge =  -0.97680000000000000     
       atom          111  Se charge =  -0.97680000000000000     
       atom          112  Se charge =  -0.97680000000000000     
       atom          113  Se charge =  -0.97680000000000000     
       atom          114  Se charge =  -0.97680000000000000     
       atom          115  Se charge =  -0.97680000000000000     
       atom          116  Se charge =  -0.97680000000000000     
       atom          117  Se charge =  -0.97680000000000000     
       atom          118  Se charge =  -0.97680000000000000     
       atom          119  Se charge =  -0.97680000000000000     
       atom          120  Se charge =  -0.97680000000000000     
       atom          121  Se charge =  -0.97680000000000000     
       atom          122  Se charge =  -0.97680000000000000     
       atom          123  Se charge =  -0.97680000000000000     
       atom          124  C331 charge =  -0.34499999999999997     
       atom          125  C2O3 charge =   0.45240000000000002     
       atom          126  O2D2 charge =  -0.47039999999999998     
       atom          127  O2D2 charge =  -0.47039999999999998     
       atom          128  HGA3 charge =   0.11500000000000000     
       atom          129  HGA3 charge =   0.11500000000000000     
       atom          130  HGA3 charge =   0.11500000000000000     
       atom          131  C331 charge =  -0.34499999999999997     
       atom          132  C2O3 charge =   0.45240000000000002     
       atom          133  O2D2 charge =  -0.47039999999999998     
       atom          134  O2D2 charge =  -0.47039999999999998     
       atom          135  HGA3 charge =   0.11500000000000000     
       atom          136  HGA3 charge =   0.11500000000000000     
       atom          137  HGA3 charge =   0.11500000000000000     
       atom          138  C331 charge =  -0.34499999999999997     
       atom          139  C2O3 charge =   0.45240000000000002     
       atom          140  O2D2 charge =  -0.47039999999999998     
       atom          141  O2D2 charge =  -0.47039999999999998     
       atom          142  HGA3 charge =   0.11500000000000000     
       atom          143  HGA3 charge =   0.11500000000000000     
       atom          144  HGA3 charge =   0.11500000000000000     
       atom          145  C331 charge =  -0.34499999999999997     
       atom          146  C2O3 charge =   0.45240000000000002     
       atom          147  O2D2 charge =  -0.47039999999999998     
       atom          148  O2D2 charge =  -0.47039999999999998     
       atom          149  HGA3 charge =   0.11500000000000000     
       atom          150  HGA3 charge =   0.11500000000000000     
       atom          151  HGA3 charge =   0.11500000000000000     
       atom          152  C331 charge =  -0.34499999999999997     
       atom          153  C2O3 charge =   0.45240000000000002     
       atom          154  O2D2 charge =  -0.47039999999999998     
       atom          155  O2D2 charge =  -0.47039999999999998     
       atom          156  HGA3 charge =   0.11500000000000000     
       atom          157  HGA3 charge =   0.11500000000000000     
       atom          158  HGA3 charge =   0.11500000000000000     
       atom          159  C331 charge =  -0.34499999999999997     
       atom          160  C2O3 charge =   0.45240000000000002     
       atom          161  O2D2 charge =  -0.47039999999999998     
       atom          162  O2D2 charge =  -0.47039999999999998     
       atom          163  HGA3 charge =   0.11500000000000000     
       atom          164  HGA3 charge =   0.11500000000000000     
       atom          165  HGA3 charge =   0.11500000000000000     
       atom          166  C331 charge =  -0.34499999999999997     
       atom          167  C2O3 charge =   0.45240000000000002     
       atom          168  O2D2 charge =  -0.47039999999999998     
       atom          169  O2D2 charge =  -0.47039999999999998     
       atom          170  HGA3 charge =   0.11500000000000000     
       atom          171  HGA3 charge =   0.11500000000000000     
       atom          172  HGA3 charge =   0.11500000000000000     
       atom          173  C331 charge =  -0.34499999999999997     
       atom          174  C2O3 charge =   0.45240000000000002     
       atom          175  O2D2 charge =  -0.47039999999999998     
       atom          176  O2D2 charge =  -0.47039999999999998     
       atom          177  HGA3 charge =   0.11500000000000000     
       atom          178  HGA3 charge =   0.11500000000000000     
       atom          179  HGA3 charge =   0.11500000000000000     
       atom          180  C331 charge =  -0.34499999999999997     
       atom          181  C2O3 charge =   0.45240000000000002     
       atom          182  O2D2 charge =  -0.47039999999999998     
       atom          183  O2D2 charge =  -0.47039999999999998     
       atom          184  HGA3 charge =   0.11500000000000000     
       atom          185  HGA3 charge =   0.11500000000000000     
       atom          186  HGA3 charge =   0.11500000000000000     
       atom          187  C331 charge =  -0.34499999999999997     
       atom          188  C2O3 charge =   0.45240000000000002     
       atom          189  O2D2 charge =  -0.47039999999999998     
       atom          190  O2D2 charge =  -0.47039999999999998     
       atom          191  HGA3 charge =   0.11500000000000000     
       atom          192  HGA3 charge =   0.11500000000000000     
       atom          193  HGA3 charge =   0.11500000000000000     
       atom          194  C331 charge =  -0.34499999999999997     
       atom          195  C2O3 charge =   0.45240000000000002     
       atom          196  O2D2 charge =  -0.47039999999999998     
       atom          197  O2D2 charge =  -0.47039999999999998     
       atom          198  HGA3 charge =   0.11500000000000000     
       atom          199  HGA3 charge =   0.11500000000000000     
       atom          200  HGA3 charge =   0.11500000000000000     
       atom          201  C331 charge =  -0.34499999999999997     
       atom          202  C2O3 charge =   0.45240000000000002     
       atom          203  O2D2 charge =  -0.47039999999999998     
       atom          204  O2D2 charge =  -0.47039999999999998     
       atom          205  HGA3 charge =   0.11500000000000000     
       atom          206  HGA3 charge =   0.11500000000000000     
       atom          207  HGA3 charge =   0.11500000000000000     
       atom          208  C331 charge =  -0.34499999999999997     
       atom          209  C2O3 charge =   0.45240000000000002     
       atom          210  O2D2 charge =  -0.47039999999999998     
       atom          211  O2D2 charge =  -0.47039999999999998     
       atom          212  HGA3 charge =   0.11500000000000000     
       atom          213  HGA3 charge =   0.11500000000000000     
       atom          214  HGA3 charge =   0.11500000000000000     
       atom          215  C331 charge =  -0.34499999999999997     
       atom          216  C2O3 charge =   0.45240000000000002     
       atom          217  O2D2 charge =  -0.47039999999999998     
       atom          218  O2D2 charge =  -0.47039999999999998     
       atom          219  HGA3 charge =   0.11500000000000000     
       atom          220  HGA3 charge =   0.11500000000000000     
       atom          221  HGA3 charge =   0.11500000000000000     
       atom          222  C331 charge =  -0.34499999999999997     
       atom          223  C2O3 charge =   0.45240000000000002     
       atom          224  O2D2 charge =  -0.47039999999999998     
       atom          225  O2D2 charge =  -0.47039999999999998     
       atom          226  HGA3 charge =   0.11500000000000000     
       atom          227  HGA3 charge =   0.11500000000000000     
       atom          228  HGA3 charge =   0.11500000000000000     
       atom          229  C331 charge =  -0.34499999999999997     
       atom          230  C2O3 charge =   0.45240000000000002     
       atom          231  O2D2 charge =  -0.47039999999999998     
       atom          232  O2D2 charge =  -0.47039999999999998     
       atom          233  HGA3 charge =   0.11500000000000000     
       atom          234  HGA3 charge =   0.11500000000000000     
       atom          235  HGA3 charge =   0.11500000000000000     
       atom          236  C331 charge =  -0.34499999999999997     
       atom          237  C2O3 charge =   0.45240000000000002     
       atom          238  O2D2 charge =  -0.47039999999999998     
       atom          239  O2D2 charge =  -0.47039999999999998     
       atom          240  HGA3 charge =   0.11500000000000000     
       atom          241  HGA3 charge =   0.11500000000000000     
       atom          242  HGA3 charge =   0.11500000000000000     
       atom          243  C331 charge =  -0.34499999999999997     
       atom          244  C2O3 charge =   0.45240000000000002     
       atom          245  O2D2 charge =  -0.47039999999999998     
       atom          246  O2D2 charge =  -0.47039999999999998     
       atom          247  HGA3 charge =   0.11500000000000000     
       atom          248  HGA3 charge =   0.11500000000000000     
       atom          249  HGA3 charge =   0.11500000000000000     
       atom          250  C331 charge =  -0.34499999999999997     
       atom          251  C2O3 charge =   0.45240000000000002     
       atom          252  O2D2 charge =  -0.47039999999999998     
       atom          253  O2D2 charge =  -0.47039999999999998     
       atom          254  HGA3 charge =   0.11500000000000000     
       atom          255  HGA3 charge =   0.11500000000000000     
       atom          256  HGA3 charge =   0.11500000000000000     
       atom          257  C331 charge =  -0.34499999999999997     
       atom          258  C2O3 charge =   0.45240000000000002     
       atom          259  O2D2 charge =  -0.47039999999999998     
       atom          260  O2D2 charge =  -0.47039999999999998     
       atom          261  HGA3 charge =   0.11500000000000000     
       atom          262  HGA3 charge =   0.11500000000000000     
       atom          263  HGA3 charge =   0.11500000000000000     
       atom          264  C331 charge =  -0.34499999999999997     
       atom          265  C2O3 charge =   0.45240000000000002     
       atom          266  O2D2 charge =  -0.47039999999999998     
       atom          267  O2D2 charge =  -0.47039999999999998     
       atom          268  HGA3 charge =   0.11500000000000000     
       atom          269  HGA3 charge =   0.11500000000000000     
       atom          270  HGA3 charge =   0.11500000000000000     
       atom          271  C331 charge =  -0.34499999999999997     
       atom          272  C2O3 charge =   0.45240000000000002     
       atom          273  O2D2 charge =  -0.47039999999999998     
       atom          274  O2D2 charge =  -0.47039999999999998     
       atom          275  HGA3 charge =   0.11500000000000000     
       atom          276  HGA3 charge =   0.11500000000000000     
       atom          277  HGA3 charge =   0.11500000000000000     
       atom          278  C331 charge =  -0.34499999999999997     
       atom          279  C2O3 charge =   0.45240000000000002     
       atom          280  O2D2 charge =  -0.47039999999999998     
       atom          281  O2D2 charge =  -0.47039999999999998     
       atom          282  HGA3 charge =   0.11500000000000000     
       atom          283  HGA3 charge =   0.11500000000000000     
       atom          284  HGA3 charge =   0.11500000000000000     
       atom          285  C331 charge =  -0.34499999999999997     
       atom          286  C2O3 charge =   0.45240000000000002     
       atom          287  O2D2 charge =  -0.47039999999999998     
       atom          288  O2D2 charge =  -0.47039999999999998     
       atom          289  HGA3 charge =   0.11500000000000000     
       atom          290  HGA3 charge =   0.11500000000000000     
       atom          291  HGA3 charge =   0.11500000000000000     
       atom          292  C331 charge =  -0.34499999999999997     
       atom          293  C2O3 charge =   0.45240000000000002     
       atom          294  O2D2 charge =  -0.47039999999999998     
       atom          295  O2D2 charge =  -0.47039999999999998     
       atom          296  HGA3 charge =   0.11500000000000000     
       atom          297  HGA3 charge =   0.11500000000000000     
       atom          298  HGA3 charge =   0.11500000000000000     
       atom          299  C331 charge =  -0.34499999999999997     
       atom          300  C2O3 charge =   0.45240000000000002     
       atom          301  O2D2 charge =  -0.47039999999999998     
       atom          302  O2D2 charge =  -0.47039999999999998     
       atom          303  HGA3 charge =   0.11500000000000000     
       atom          304  HGA3 charge =   0.11500000000000000     
       atom          305  HGA3 charge =   0.11500000000000000     
    Total system charge =         0.0000000000
    Total system mass   =  24650138.9535497911
     Mol(           5 ) Old BOND Count:            6           3
     1     5
     1     6
     1     7
     2     1
     3     2
     4     2
     Mol(           5 ) Old BEND Count:            9           4
     2     1     5
     2     1     6
     2     1     7
     3     2     1
     4     2     1
     4     2     3
     6     1     5
     7     1     5
     7     1     6
     Mol(           5 ) Old UB Count:            9           4
     2     1     5
     2     1     6
     2     1     7
     3     2     1
     4     2     1
     4     2     3
     6     1     5
     7     1     5
     7     1     6
     Mol(           5 ) New UB Count:            0           0

     Mol(           5 ) Old TORSION Count:            6           1
     5     1     2     3
     5     1     2     4
     6     1     2     3
     6     1     2     4
     7     1     2     3
     7     1     2     4
     Mol(           5 ) Old IMPROPER Count:            1           1
     Mol(           5 ) Old OPBEND Count:            1           1
     Mol(           5 ) New OPBEND Count:            0           0

 ENERGY| Total FORCE_EVAL ( FIST ) energy (a.u.):            -15.511402657108732


 ENERGY| Total FORCE_EVAL ( FIST ) energy (a.u.):            -15.511417288761553


 ENERGY| Total FORCE_EVAL ( FIST ) energy (a.u.):            -15.511318169772078


 ENERGY| Total FORCE_EVAL ( FIST ) energy (a.u.):            -15.511403736335300


 ENERGY| Total FORCE_EVAL ( FIST ) energy (a.u.):            -15.511317056519518


 ENERGY| Total FORCE_EVAL ( FIST ) energy (a.u.):            -15.511443622199021


 ENERGY| Total FORCE_EVAL ( FIST ) energy (a.u.):            -15.511321388651858


 ENERGY| Total FORCE_EVAL ( FIST ) energy (a.u.):            -15.511456552921141


 ENERGY| Total FORCE_EVAL ( FIST ) energy (a.u.):            -15.511443533714830


 ENERGY| Total FORCE_EVAL ( FIST ) energy (a.u.):            -15.511420758855065


 ENERGY| Total FORCE_EVAL ( FIST ) energy (a.u.):            -15.511440356882130


 ENERGY| Total FORCE_EVAL ( FIST ) energy (a.u.):            -15.511328821902017


 ENERGY| Total FORCE_EVAL ( FIST ) energy (a.u.):            -15.511458846249559


 ENERGY| Total FORCE_EVAL ( FIST ) energy (a.u.):            -15.511350827649688


 ENERGY| Total FORCE_EVAL ( FIST ) energy (a.u.):            -15.511382007504338


 ENERGY| Total FORCE_EVAL ( FIST ) energy (a.u.):            -15.511368396332117


 ENERGY| Total FORCE_EVAL ( FIST ) energy (a.u.):            -15.511512880623025


 ENERGY| Total FORCE_EVAL ( FIST ) energy (a.u.):            -15.511384320492045


 ENERGY| Total FORCE_EVAL ( FIST ) energy (a.u.):            -15.511415497758851


 ENERGY| Total FORCE_EVAL ( FIST ) energy (a.u.):            -15.511352253082201


 ENERGY| Total FORCE_EVAL ( FIST ) energy (a.u.):            -15.511457565741797


 ENERGY| Total FORCE_EVAL ( FIST ) energy (a.u.):            -15.511380978490211


 ENERGY| Total FORCE_EVAL ( FIST ) energy (a.u.):            -15.511380051456104


 ENERGY| Total FORCE_EVAL ( FIST ) energy (a.u.):            -15.511507819928987


 ENERGY| Total FORCE_EVAL ( FIST ) energy (a.u.):            -15.511315812681996


 ENERGY| Total FORCE_EVAL ( FIST ) energy (a.u.):            -15.511467320978085


 ENERGY| Total FORCE_EVAL ( FIST ) energy (a.u.):            -15.511476379133040


 ENERGY| Total FORCE_EVAL ( FIST ) energy (a.u.):            -15.511521926480427


 ENERGY| Total FORCE_EVAL ( FIST ) energy (a.u.):            -15.511399653607697


 ENERGY| Total FORCE_EVAL ( FIST ) energy (a.u.):            -15.511432151051750


 ENERGY| Total FORCE_EVAL ( FIST ) energy (a.u.):            -15.511433432817221


 ENERGY| Total FORCE_EVAL ( FIST ) energy (a.u.):            -15.511549386574670


 ENERGY| Total FORCE_EVAL ( FIST ) energy (a.u.):            -15.511415293466461


 ENERGY| Total FORCE_EVAL ( FIST ) energy (a.u.):            -15.511533686809624


 ENERGY| Total FORCE_EVAL ( FIST ) energy (a.u.):            -15.511426144208039


 ENERGY| Total FORCE_EVAL ( FIST ) energy (a.u.):            -15.511393329048477


 ENERGY| Total FORCE_EVAL ( FIST ) energy (a.u.):            -15.511506110479681


 ENERGY| Total FORCE_EVAL ( FIST ) energy (a.u.):            -15.511474687145494


 ENERGY| Total FORCE_EVAL ( FIST ) energy (a.u.):            -15.511497555657119


 ENERGY| Total FORCE_EVAL ( FIST ) energy (a.u.):            -15.511457696385159


 ENERGY| Total FORCE_EVAL ( FIST ) energy (a.u.):            -15.511563949143143


 ENERGY| Total FORCE_EVAL ( FIST ) energy (a.u.):            -15.511443129309693


 ENERGY| Total FORCE_EVAL ( FIST ) energy (a.u.):            -15.511445869159493


 ENERGY| Total FORCE_EVAL ( FIST ) energy (a.u.):            -15.511429276899074


 ENERGY| Total FORCE_EVAL ( FIST ) energy (a.u.):            -15.511516147770511


 ENERGY| Total FORCE_EVAL ( FIST ) energy (a.u.):            -15.511457008490099


 ENERGY| Total FORCE_EVAL ( FIST ) energy (a.u.):            -15.511475548867990


 ENERGY| Total FORCE_EVAL ( FIST ) energy (a.u.):            -15.511579066519289


 ENERGY| Total FORCE_EVAL ( FIST ) energy (a.u.):            -15.511369080181874


 ENERGY| Total FORCE_EVAL ( FIST ) energy (a.u.):            -15.511473574429459


 ENERGY| Total FORCE_EVAL ( FIST ) energy (a.u.):            -15.511457716628184


 ENERGY| Total FORCE_EVAL ( FIST ) energy (a.u.):            -15.511429916649710


 ENERGY| Total FORCE_EVAL ( FIST ) energy (a.u.):            -15.511371297780027


 ENERGY| Total FORCE_EVAL ( FIST ) energy (a.u.):            -15.511446563625990


 ENERGY| Total FORCE_EVAL ( FIST ) energy (a.u.):            -15.511427861507656


 ENERGY| Total FORCE_EVAL ( FIST ) energy (a.u.):            -15.511445064616071


 ENERGY| Total FORCE_EVAL ( FIST ) energy (a.u.):            -15.511385236046921


 ENERGY| Total FORCE_EVAL ( FIST ) energy (a.u.):            -15.511437709177336


 ENERGY| Total FORCE_EVAL ( FIST ) energy (a.u.):            -15.511524505990156


 ENERGY| Total FORCE_EVAL ( FIST ) energy (a.u.):            -15.511445036127768


 ENERGY| Total FORCE_EVAL ( FIST ) energy (a.u.):            -15.511515072248718


 ENERGY| Total FORCE_EVAL ( FIST ) energy (a.u.):            -15.511410814326705


 ENERGY| Total FORCE_EVAL ( FIST ) energy (a.u.):            -15.511425821664551


 ENERGY| Total FORCE_EVAL ( FIST ) energy (a.u.):            -15.511435721278104


 ENERGY| Total FORCE_EVAL ( FIST ) energy (a.u.):            -15.511461797153302


 ENERGY| Total FORCE_EVAL ( FIST ) energy (a.u.):            -15.511521669890010


 ENERGY| Total FORCE_EVAL ( FIST ) energy (a.u.):            -15.511432440038501


 ENERGY| Total FORCE_EVAL ( FIST ) energy (a.u.):            -15.511436625189582


 ENERGY| Total FORCE_EVAL ( FIST ) energy (a.u.):            -15.511437930964725


 ENERGY| Total FORCE_EVAL ( FIST ) energy (a.u.):            -15.511457240085488


 ENERGY| Total FORCE_EVAL ( FIST ) energy (a.u.):            -15.511421397819399


 ENERGY| Total FORCE_EVAL ( FIST ) energy (a.u.):            -15.511495121012084


 ENERGY| Total FORCE_EVAL ( FIST ) energy (a.u.):            -15.511513632651971


 ENERGY| Total FORCE_EVAL ( FIST ) energy (a.u.):            -15.511422954704166


 ENERGY| Total FORCE_EVAL ( FIST ) energy (a.u.):            -15.511417946120147


 ENERGY| Total FORCE_EVAL ( FIST ) energy (a.u.):            -15.511431906446894


 ENERGY| Total FORCE_EVAL ( FIST ) energy (a.u.):            -15.511475187228418


 ENERGY| Total FORCE_EVAL ( FIST ) energy (a.u.):            -15.511409349237791


 ENERGY| Total FORCE_EVAL ( FIST ) energy (a.u.):            -15.511401248482509


 ENERGY| Total FORCE_EVAL ( FIST ) energy (a.u.):            -15.511424942274958


 ENERGY| Total FORCE_EVAL ( FIST ) energy (a.u.):            -15.511358220033985


 ENERGY| Total FORCE_EVAL ( FIST ) energy (a.u.):            -15.511403934152749


 ENERGY| Total FORCE_EVAL ( FIST ) energy (a.u.):            -15.511352067823390


 ENERGY| Total FORCE_EVAL ( FIST ) energy (a.u.):            -15.511438385432369


 ENERGY| Total FORCE_EVAL ( FIST ) energy (a.u.):            -15.511362384655914


 ENERGY| Total FORCE_EVAL ( FIST ) energy (a.u.):            -15.511434507413034


 ENERGY| Total FORCE_EVAL ( FIST ) energy (a.u.):            -15.511427512874914


 ENERGY| Total FORCE_EVAL ( FIST ) energy (a.u.):            -15.511433742121040


 ENERGY| Total FORCE_EVAL ( FIST ) energy (a.u.):            -15.511470465415979


 ENERGY| Total FORCE_EVAL ( FIST ) energy (a.u.):            -15.511275202319910


 ENERGY| Total FORCE_EVAL ( FIST ) energy (a.u.):            -15.511428320360155


 ENERGY| Total FORCE_EVAL ( FIST ) energy (a.u.):            -15.511420376669580


 ENERGY| Total FORCE_EVAL ( FIST ) energy (a.u.):            -15.511249051311841


 ENERGY| Total FORCE_EVAL ( FIST ) energy (a.u.):            -15.511432106412252


 ENERGY| Total FORCE_EVAL ( FIST ) energy (a.u.):            -15.511268757870841


 ENERGY| Total FORCE_EVAL ( FIST ) energy (a.u.):            -15.511488252124742


 ENERGY| Total FORCE_EVAL ( FIST ) energy (a.u.):            -15.511388524911920


 ENERGY| Total FORCE_EVAL ( FIST ) energy (a.u.):            -15.511427849821398


 ENERGY| Total FORCE_EVAL ( FIST ) energy (a.u.):            -15.511405449137358


 ENERGY| Total FORCE_EVAL ( FIST ) energy (a.u.):            -15.511244000067212


 ENERGY| Total FORCE_EVAL ( FIST ) energy (a.u.):            -15.511501849468658


 ENERGY| Total FORCE_EVAL ( FIST ) energy (a.u.):            -15.511499889850180


 ENERGY| Total FORCE_EVAL ( FIST ) energy (a.u.):            -15.511418895411596


 ENERGY| Total FORCE_EVAL ( FIST ) energy (a.u.):            -15.511215480047657


 ENERGY| Total FORCE_EVAL ( FIST ) energy (a.u.):            -15.511480294560220


 ENERGY| Total FORCE_EVAL ( FIST ) energy (a.u.):            -15.511255977855747


 ENERGY| Total FORCE_EVAL ( FIST ) energy (a.u.):            -15.511494268560774


 ENERGY| Total FORCE_EVAL ( FIST ) energy (a.u.):            -15.511472249717654


 ENERGY| Total FORCE_EVAL ( FIST ) energy (a.u.):            -15.511386421411732


 ENERGY| Total FORCE_EVAL ( FIST ) energy (a.u.):            -15.511428285026685


 ENERGY| Total FORCE_EVAL ( FIST ) energy (a.u.):            -15.511167729818304


 ENERGY| Total FORCE_EVAL ( FIST ) energy (a.u.):            -15.511411692879664


 ENERGY| Total FORCE_EVAL ( FIST ) energy (a.u.):            -15.511422532249494


 ENERGY| Total FORCE_EVAL ( FIST ) energy (a.u.):            -15.511198685074229


 ENERGY| Total FORCE_EVAL ( FIST ) energy (a.u.):            -15.511506231757338


 ENERGY| Total FORCE_EVAL ( FIST ) energy (a.u.):            -15.511296071565759


 ENERGY| Total FORCE_EVAL ( FIST ) energy (a.u.):            -15.511337308219712


 ENERGY| Total FORCE_EVAL ( FIST ) energy (a.u.):            -15.511321300132057


 ENERGY| Total FORCE_EVAL ( FIST ) energy (a.u.):            -15.511558921416047


 ENERGY| Total FORCE_EVAL ( FIST ) energy (a.u.):            -15.511352582772664


 ENERGY| Total FORCE_EVAL ( FIST ) energy (a.u.):            -15.511392946898100


 ENERGY| Total FORCE_EVAL ( FIST ) energy (a.u.):            -15.511203389696579


 ENERGY| Total FORCE_EVAL ( FIST ) energy (a.u.):            -15.511463244509386


 ENERGY| Total FORCE_EVAL ( FIST ) energy (a.u.):            -15.511194377399097


 ENERGY| Total FORCE_EVAL ( FIST ) energy (a.u.):            -15.511513369825508


 ENERGY| Total FORCE_EVAL ( FIST ) energy (a.u.):            -15.511483856605533


 ENERGY| Total FORCE_EVAL ( FIST ) energy (a.u.):            -15.511392680568985


 ENERGY| Total FORCE_EVAL ( FIST ) energy (a.u.):            -15.511209709979813


 ENERGY| Total FORCE_EVAL ( FIST ) energy (a.u.):            -15.511451780595582


 ENERGY| Total FORCE_EVAL ( FIST ) energy (a.u.):            -15.511324989098206


 ENERGY| Total FORCE_EVAL ( FIST ) energy (a.u.):            -15.511344319464287


 ENERGY| Total FORCE_EVAL ( FIST ) energy (a.u.):            -15.511540936943945


 ENERGY| Total FORCE_EVAL ( FIST ) energy (a.u.):            -15.511226395549059


 ENERGY| Total FORCE_EVAL ( FIST ) energy (a.u.):            -15.511492107466299


 ENERGY| Total FORCE_EVAL ( FIST ) energy (a.u.):            -15.511476477326093


 ENERGY| Total FORCE_EVAL ( FIST ) energy (a.u.):            -15.511362493805679


 ENERGY| Total FORCE_EVAL ( FIST ) energy (a.u.):            -15.511429344098044


 ENERGY| Total FORCE_EVAL ( FIST ) energy (a.u.):            -15.511241062215070


 ENERGY| Total FORCE_EVAL ( FIST ) energy (a.u.):            -15.511388578598245


 ENERGY| Total FORCE_EVAL ( FIST ) energy (a.u.):            -15.511378916192520


 ENERGY| Total FORCE_EVAL ( FIST ) energy (a.u.):            -15.511213494950612


 ENERGY| Total FORCE_EVAL ( FIST ) energy (a.u.):            -15.511544668385589


 ENERGY| Total FORCE_EVAL ( FIST ) energy (a.u.):            -15.511339410917078


 ENERGY| Total FORCE_EVAL ( FIST ) energy (a.u.):            -15.511299393689788


 ENERGY| Total FORCE_EVAL ( FIST ) energy (a.u.):            -15.511359584633063


 ENERGY| Total FORCE_EVAL ( FIST ) energy (a.u.):            -15.511580906892117


 ENERGY| Total FORCE_EVAL ( FIST ) energy (a.u.):            -15.511307933509247


 ENERGY| Total FORCE_EVAL ( FIST ) energy (a.u.):            -15.511532766994875


 ENERGY| Total FORCE_EVAL ( FIST ) energy (a.u.):            -15.511278502349958


 ENERGY| Total FORCE_EVAL ( FIST ) energy (a.u.):            -15.511359480802517


 ENERGY| Total FORCE_EVAL ( FIST ) energy (a.u.):            -15.511313487885559


 ENERGY| Total FORCE_EVAL ( FIST ) energy (a.u.):            -15.511539897300416


 ENERGY| Total FORCE_EVAL ( FIST ) energy (a.u.):            -15.511353371102370


 ENERGY| Total FORCE_EVAL ( FIST ) energy (a.u.):            -15.511387365231570


 ENERGY| Total FORCE_EVAL ( FIST ) energy (a.u.):            -15.511204342546263


 ENERGY| Total FORCE_EVAL ( FIST ) energy (a.u.):            -15.511486315516947


 ENERGY| Total FORCE_EVAL ( FIST ) energy (a.u.):            -15.511197345678557


 ENERGY| Total FORCE_EVAL ( FIST ) energy (a.u.):            -15.511486798569038


 ENERGY| Total FORCE_EVAL ( FIST ) energy (a.u.):            -15.511495938009492


 ENERGY| Total FORCE_EVAL ( FIST ) energy (a.u.):            -15.511391057175622


 ENERGY| Total FORCE_EVAL ( FIST ) energy (a.u.):            -15.511198453119270


 ENERGY| Total FORCE_EVAL ( FIST ) energy (a.u.):            -15.511418318899267


 ENERGY| Total FORCE_EVAL ( FIST ) energy (a.u.):            -15.511346421721026


 ENERGY| Total FORCE_EVAL ( FIST ) energy (a.u.):            -15.511339979698432


 ENERGY| Total FORCE_EVAL ( FIST ) energy (a.u.):            -15.511590113930350


 ENERGY| Total FORCE_EVAL ( FIST ) energy (a.u.):            -15.511340295181428


 ENERGY| Total FORCE_EVAL ( FIST ) energy (a.u.):            -15.511401857511855


 ENERGY| Total FORCE_EVAL ( FIST ) energy (a.u.):            -15.511579877257224


 ENERGY| Total FORCE_EVAL ( FIST ) energy (a.u.):            -15.511239915685723


 ENERGY| Total FORCE_EVAL ( FIST ) energy (a.u.):            -15.511494709871426


 ENERGY| Total FORCE_EVAL ( FIST ) energy (a.u.):            -15.511454161295578


 ENERGY| Total FORCE_EVAL ( FIST ) energy (a.u.):            -15.511651719512930


 ENERGY| Total FORCE_EVAL ( FIST ) energy (a.u.):            -15.511384126550814


 ENERGY| Total FORCE_EVAL ( FIST ) energy (a.u.):            -15.511428323328808


 ENERGY| Total FORCE_EVAL ( FIST ) energy (a.u.):            -15.511499089265300


 ENERGY| Total FORCE_EVAL ( FIST ) energy (a.u.):            -15.511463484391181


 ENERGY| Total FORCE_EVAL ( FIST ) energy (a.u.):            -15.511360046939348


 ENERGY| Total FORCE_EVAL ( FIST ) energy (a.u.):            -15.511481255683856


 ENERGY| Total FORCE_EVAL ( FIST ) energy (a.u.):            -15.511654388226370


 ENERGY| Total FORCE_EVAL ( FIST ) energy (a.u.):            -15.511448835556877


 ENERGY| Total FORCE_EVAL ( FIST ) energy (a.u.):            -15.511711067227921


 ENERGY| Total FORCE_EVAL ( FIST ) energy (a.u.):            -15.511378868104853


 ENERGY| Total FORCE_EVAL ( FIST ) energy (a.u.):            -15.511394421078339


 ENERGY| Total FORCE_EVAL ( FIST ) energy (a.u.):            -15.511489571330387


 ENERGY| Total FORCE_EVAL ( FIST ) energy (a.u.):            -15.511689354746002


 ENERGY| Total FORCE_EVAL ( FIST ) energy (a.u.):            -15.511415660268826


 ENERGY| Total FORCE_EVAL ( FIST ) energy (a.u.):            -15.511659146794956


 ENERGY| Total FORCE_EVAL ( FIST ) energy (a.u.):            -15.511416111716517


 ENERGY| Total FORCE_EVAL ( FIST ) energy (a.u.):            -15.511392204598289


 ENERGY| Total FORCE_EVAL ( FIST ) energy (a.u.):            -15.511490211970749


 ENERGY| Total FORCE_EVAL ( FIST ) energy (a.u.):            -15.511616214003434


 ENERGY| Total FORCE_EVAL ( FIST ) energy (a.u.):            -15.511413549764464


 ENERGY| Total FORCE_EVAL ( FIST ) energy (a.u.):            -15.511516554828056


 ENERGY| Total FORCE_EVAL ( FIST ) energy (a.u.):            -15.511361121795272


 ENERGY| Total FORCE_EVAL ( FIST ) energy (a.u.):            -15.511486491316665


 ENERGY| Total FORCE_EVAL ( FIST ) energy (a.u.):            -15.511416777048220


 ENERGY| Total FORCE_EVAL ( FIST ) energy (a.u.):            -15.511490520630392


 ENERGY| Total FORCE_EVAL ( FIST ) energy (a.u.):            -15.511458758608160


 ENERGY| Total FORCE_EVAL ( FIST ) energy (a.u.):            -15.511489565557737


 ENERGY| Total FORCE_EVAL ( FIST ) energy (a.u.):            -15.511483178280480


 ENERGY| Total FORCE_EVAL ( FIST ) energy (a.u.):            -15.511653234189696


 ENERGY| Total FORCE_EVAL ( FIST ) energy (a.u.):            -15.511487633364654


 ENERGY| Total FORCE_EVAL ( FIST ) energy (a.u.):            -15.511462197080201


 ENERGY| Total FORCE_EVAL ( FIST ) energy (a.u.):            -15.511680184745060


 ENERGY| Total FORCE_EVAL ( FIST ) energy (a.u.):            -15.511487363575435


 ENERGY| Total FORCE_EVAL ( FIST ) energy (a.u.):            -15.511446666960135


 ENERGY| Total FORCE_EVAL ( FIST ) energy (a.u.):            -15.511632737430563


 ENERGY| Total FORCE_EVAL ( FIST ) energy (a.u.):            -15.511650446701593


 ENERGY| Total FORCE_EVAL ( FIST ) energy (a.u.):            -15.511350264134078


 ENERGY| Total FORCE_EVAL ( FIST ) energy (a.u.):            -15.511406671599017


 ENERGY| Total FORCE_EVAL ( FIST ) energy (a.u.):            -15.511442941010563


 ENERGY| Total FORCE_EVAL ( FIST ) energy (a.u.):            -15.511633641371033


 ENERGY| Total FORCE_EVAL ( FIST ) energy (a.u.):            -15.511420030904976


 ENERGY| Total FORCE_EVAL ( FIST ) energy (a.u.):            -15.511694084075241


 ENERGY| Total FORCE_EVAL ( FIST ) energy (a.u.):            -15.511370144012886


 ENERGY| Total FORCE_EVAL ( FIST ) energy (a.u.):            -15.511381116451808


 ENERGY| Total FORCE_EVAL ( FIST ) energy (a.u.):            -15.511607699432460


 ENERGY| Total FORCE_EVAL ( FIST ) energy (a.u.):            -15.511524408450949


 ENERGY| Total FORCE_EVAL ( FIST ) energy (a.u.):            -15.511467560119307


 ENERGY| Total FORCE_EVAL ( FIST ) energy (a.u.):            -15.511477876515993


 ENERGY| Total FORCE_EVAL ( FIST ) energy (a.u.):            -15.511693758941302


 ENERGY| Total FORCE_EVAL ( FIST ) energy (a.u.):            -15.511405337667068


 ENERGY| Total FORCE_EVAL ( FIST ) energy (a.u.):            -15.511644867457523


 ENERGY| Total FORCE_EVAL ( FIST ) energy (a.u.):            -15.511392076866210


 ENERGY| Total FORCE_EVAL ( FIST ) energy (a.u.):            -15.511362789257841


 ENERGY| Total FORCE_EVAL ( FIST ) energy (a.u.):            -15.511602232550603


 ENERGY| Total FORCE_EVAL ( FIST ) energy (a.u.):            -15.511490851117992


 ENERGY| Total FORCE_EVAL ( FIST ) energy (a.u.):            -15.511518381884642


 ENERGY| Total FORCE_EVAL ( FIST ) energy (a.u.):            -15.511577068667812


 ENERGY| Total FORCE_EVAL ( FIST ) energy (a.u.):            -15.511512279789121


 ENERGY| Total FORCE_EVAL ( FIST ) energy (a.u.):            -15.511522664089009


 ENERGY| Total FORCE_EVAL ( FIST ) energy (a.u.):            -15.511466129921644


 ENERGY| Total FORCE_EVAL ( FIST ) energy (a.u.):            -15.511587116090766


 ENERGY| Total FORCE_EVAL ( FIST ) energy (a.u.):            -15.511371167160934


 ENERGY| Total FORCE_EVAL ( FIST ) energy (a.u.):            -15.511441678857054


 ENERGY| Total FORCE_EVAL ( FIST ) energy (a.u.):            -15.511463080451318


 ENERGY| Total FORCE_EVAL ( FIST ) energy (a.u.):            -15.511639200187021


 ENERGY| Total FORCE_EVAL ( FIST ) energy (a.u.):            -15.511465380034510


 ENERGY| Total FORCE_EVAL ( FIST ) energy (a.u.):            -15.511462634859592


 ENERGY| Total FORCE_EVAL ( FIST ) energy (a.u.):            -15.511671924828169


 ENERGY| Total FORCE_EVAL ( FIST ) energy (a.u.):            -15.511476032698061


 ENERGY| Total FORCE_EVAL ( FIST ) energy (a.u.):            -15.511411347782726


 ENERGY| Total FORCE_EVAL ( FIST ) energy (a.u.):            -15.511617180609864


 ENERGY| Total FORCE_EVAL ( FIST ) energy (a.u.):            -15.511321545802613


 ENERGY| Total FORCE_EVAL ( FIST ) energy (a.u.):            -15.511570939009058


 ENERGY| Total FORCE_EVAL ( FIST ) energy (a.u.):            -15.511568465562851


 ENERGY| Total FORCE_EVAL ( FIST ) energy (a.u.):            -15.511436930534432


 ENERGY| Total FORCE_EVAL ( FIST ) energy (a.u.):            -15.511406635319746


 ENERGY| Total FORCE_EVAL ( FIST ) energy (a.u.):            -15.511463690065366


 ENERGY| Total FORCE_EVAL ( FIST ) energy (a.u.):            -15.511547619666269


 ENERGY| Total FORCE_EVAL ( FIST ) energy (a.u.):            -15.511297350494793


 ENERGY| Total FORCE_EVAL ( FIST ) energy (a.u.):            -15.511545098689052


 ENERGY| Total FORCE_EVAL ( FIST ) energy (a.u.):            -15.511412263866980


 ENERGY| Total FORCE_EVAL ( FIST ) energy (a.u.):            -15.511424874232635


 ENERGY| Total FORCE_EVAL ( FIST ) energy (a.u.):            -15.511382588367232


 ENERGY| Total FORCE_EVAL ( FIST ) energy (a.u.):            -15.511391155004446


 ENERGY| Total FORCE_EVAL ( FIST ) energy (a.u.):            -15.511449139570859


 ENERGY| Total FORCE_EVAL ( FIST ) energy (a.u.):            -15.511440457320132


 ENERGY| Total FORCE_EVAL ( FIST ) energy (a.u.):            -15.511549863704696


 ENERGY| Total FORCE_EVAL ( FIST ) energy (a.u.):            -15.511501982760338


 ENERGY| Total FORCE_EVAL ( FIST ) energy (a.u.):            -15.511279495304342


 ENERGY| Total FORCE_EVAL ( FIST ) energy (a.u.):            -15.511315708464927


 ENERGY| Total FORCE_EVAL ( FIST ) energy (a.u.):            -15.511638154002327


 ENERGY| Total FORCE_EVAL ( FIST ) energy (a.u.):            -15.511529231261298


 ENERGY| Total FORCE_EVAL ( FIST ) energy (a.u.):            -15.511432752131412


 ENERGY| Total FORCE_EVAL ( FIST ) energy (a.u.):            -15.511454626611963


 ENERGY| Total FORCE_EVAL ( FIST ) energy (a.u.):            -15.511400717451636


 ENERGY| Total FORCE_EVAL ( FIST ) energy (a.u.):            -15.511579843024824


 ENERGY| Total FORCE_EVAL ( FIST ) energy (a.u.):            -15.511226964980956


 ENERGY| Total FORCE_EVAL ( FIST ) energy (a.u.):            -15.511511973207071


 ENERGY| Total FORCE_EVAL ( FIST ) energy (a.u.):            -15.511348956807687


 ENERGY| Total FORCE_EVAL ( FIST ) energy (a.u.):            -15.511563176140166


 ENERGY| Total FORCE_EVAL ( FIST ) energy (a.u.):            -15.511614733297161


 ENERGY| Total FORCE_EVAL ( FIST ) energy (a.u.):            -15.511512500997117


 ENERGY| Total FORCE_EVAL ( FIST ) energy (a.u.):            -15.511280011784605


 ENERGY| Total FORCE_EVAL ( FIST ) energy (a.u.):            -15.511570756602662


 ENERGY| Total FORCE_EVAL ( FIST ) energy (a.u.):            -15.511440399677639


 ENERGY| Total FORCE_EVAL ( FIST ) energy (a.u.):            -15.511424961945037


 ENERGY| Total FORCE_EVAL ( FIST ) energy (a.u.):            -15.511465254578024


 ENERGY| Total FORCE_EVAL ( FIST ) energy (a.u.):            -15.511385285837509


 ENERGY| Total FORCE_EVAL ( FIST ) energy (a.u.):            -15.511436060511052


 ENERGY| Total FORCE_EVAL ( FIST ) energy (a.u.):            -15.511443102156726


 ENERGY| Total FORCE_EVAL ( FIST ) energy (a.u.):            -15.511581768357940


 ENERGY| Total FORCE_EVAL ( FIST ) energy (a.u.):            -15.511477619006429


 ENERGY| Total FORCE_EVAL ( FIST ) energy (a.u.):            -15.511232964724757


 ENERGY| Total FORCE_EVAL ( FIST ) energy (a.u.):            -15.511522485068800


 ENERGY| Total FORCE_EVAL ( FIST ) energy (a.u.):            -15.511567134776714


 ENERGY| Total FORCE_EVAL ( FIST ) energy (a.u.):            -15.511234539903437


 ENERGY| Total FORCE_EVAL ( FIST ) energy (a.u.):            -15.511365257561767


 ENERGY| Total FORCE_EVAL ( FIST ) energy (a.u.):            -15.511596994830136


 ENERGY| Total FORCE_EVAL ( FIST ) energy (a.u.):            -15.511559051849524


 ENERGY| Total FORCE_EVAL ( FIST ) energy (a.u.):            -15.511446334028227


 ENERGY| Total FORCE_EVAL ( FIST ) energy (a.u.):            -15.511445330351577


 ENERGY| Total FORCE_EVAL ( FIST ) energy (a.u.):            -15.511510243082700


 ENERGY| Total FORCE_EVAL ( FIST ) energy (a.u.):            -15.511563054139215


 ENERGY| Total FORCE_EVAL ( FIST ) energy (a.u.):            -15.511292629582636


 ENERGY| Total FORCE_EVAL ( FIST ) energy (a.u.):            -15.511538185550982


 ENERGY| Total FORCE_EVAL ( FIST ) energy (a.u.):            -15.511410192710743


 ENERGY| Total FORCE_EVAL ( FIST ) energy (a.u.):            -15.511643483284214


 ENERGY| Total FORCE_EVAL ( FIST ) energy (a.u.):            -15.511610225774435


 ENERGY| Total FORCE_EVAL ( FIST ) energy (a.u.):            -15.511623552107674


 ENERGY| Total FORCE_EVAL ( FIST ) energy (a.u.):            -15.511313505588371


 ENERGY| Total FORCE_EVAL ( FIST ) energy (a.u.):            -15.511589768274490


 ENERGY| Total FORCE_EVAL ( FIST ) energy (a.u.):            -15.511366679626569


 ENERGY| Total FORCE_EVAL ( FIST ) energy (a.u.):            -15.511591188788740


 ENERGY| Total FORCE_EVAL ( FIST ) energy (a.u.):            -15.511568302498231


 ENERGY| Total FORCE_EVAL ( FIST ) energy (a.u.):            -15.511552157895100


 ENERGY| Total FORCE_EVAL ( FIST ) energy (a.u.):            -15.511288183993027


 ENERGY| Total FORCE_EVAL ( FIST ) energy (a.u.):            -15.511537742514861


 ENERGY| Total FORCE_EVAL ( FIST ) energy (a.u.):            -15.511427507253414


 ENERGY| Total FORCE_EVAL ( FIST ) energy (a.u.):            -15.511523657020035


 ENERGY| Total FORCE_EVAL ( FIST ) energy (a.u.):            -15.511443568660438


 ENERGY| Total FORCE_EVAL ( FIST ) energy (a.u.):            -15.511407401852331


 ENERGY| Total FORCE_EVAL ( FIST ) energy (a.u.):            -15.511421712067165


 ENERGY| Total FORCE_EVAL ( FIST ) energy (a.u.):            -15.511420762065969


 ENERGY| Total FORCE_EVAL ( FIST ) energy (a.u.):            -15.511565641746968


 ENERGY| Total FORCE_EVAL ( FIST ) energy (a.u.):            -15.511521820346751


 ENERGY| Total FORCE_EVAL ( FIST ) energy (a.u.):            -15.511276900049396


 ENERGY| Total FORCE_EVAL ( FIST ) energy (a.u.):            -15.511613694783870


 ENERGY| Total FORCE_EVAL ( FIST ) energy (a.u.):            -15.511554213567369


 ENERGY| Total FORCE_EVAL ( FIST ) energy (a.u.):            -15.511299547572778


 ENERGY| Total FORCE_EVAL ( FIST ) energy (a.u.):            -15.511551308220138


 ENERGY| Total FORCE_EVAL ( FIST ) energy (a.u.):            -15.511520142723848


 ENERGY| Total FORCE_EVAL ( FIST ) energy (a.u.):            -15.511298539677584


 ENERGY| Total FORCE_EVAL ( FIST ) energy (a.u.):            -15.511383375233006


 ENERGY| Total FORCE_EVAL ( FIST ) energy (a.u.):            -15.511443943841430


 ENERGY| Total FORCE_EVAL ( FIST ) energy (a.u.):            -15.511448771812272


 ENERGY| Total FORCE_EVAL ( FIST ) energy (a.u.):            -15.511416352940044


 ENERGY| Total FORCE_EVAL ( FIST ) energy (a.u.):            -15.511384183151531


 ENERGY| Total FORCE_EVAL ( FIST ) energy (a.u.):            -15.511454505366396


 ENERGY| Total FORCE_EVAL ( FIST ) energy (a.u.):            -15.511435190314861


 ENERGY| Total FORCE_EVAL ( FIST ) energy (a.u.):            -15.511436531310293


 ENERGY| Total FORCE_EVAL ( FIST ) energy (a.u.):            -15.511435405717604


 ENERGY| Total FORCE_EVAL ( FIST ) energy (a.u.):            -15.511444347343344


 ENERGY| Total FORCE_EVAL ( FIST ) energy (a.u.):            -15.511466205002478


 ENERGY| Total FORCE_EVAL ( FIST ) energy (a.u.):            -15.511411692630292


 ENERGY| Total FORCE_EVAL ( FIST ) energy (a.u.):            -15.511388215756170


 ENERGY| Total FORCE_EVAL ( FIST ) energy (a.u.):            -15.511459039195975


 ENERGY| Total FORCE_EVAL ( FIST ) energy (a.u.):            -15.511439613761116


 ENERGY| Total FORCE_EVAL ( FIST ) energy (a.u.):            -15.511451018331723


 ENERGY| Total FORCE_EVAL ( FIST ) energy (a.u.):            -15.511401011610596


 ENERGY| Total FORCE_EVAL ( FIST ) energy (a.u.):            -15.511473043689225


 ENERGY| Total FORCE_EVAL ( FIST ) energy (a.u.):            -15.511420382272572


 ENERGY| Total FORCE_EVAL ( FIST ) energy (a.u.):            -15.511437156615729


 ENERGY| Total FORCE_EVAL ( FIST ) energy (a.u.):            -15.511371501914455


 ENERGY| Total FORCE_EVAL ( FIST ) energy (a.u.):            -15.511444559166888


 ENERGY| Total FORCE_EVAL ( FIST ) energy (a.u.):            -15.511399079230856


 ENERGY| Total FORCE_EVAL ( FIST ) energy (a.u.):            -15.511444530009436


 ENERGY| Total FORCE_EVAL ( FIST ) energy (a.u.):            -15.511445491657406


 ENERGY| Total FORCE_EVAL ( FIST ) energy (a.u.):            -15.511497580380061


 ENERGY| Total FORCE_EVAL ( FIST ) energy (a.u.):            -15.511423426485255


 ENERGY| Total FORCE_EVAL ( FIST ) energy (a.u.):            -15.511271824918669


 ENERGY| Total FORCE_EVAL ( FIST ) energy (a.u.):            -15.511339866257893


 ENERGY| Total FORCE_EVAL ( FIST ) energy (a.u.):            -15.511341918497823


 ENERGY| Total FORCE_EVAL ( FIST ) energy (a.u.):            -15.511266474864831


 ENERGY| Total FORCE_EVAL ( FIST ) energy (a.u.):            -15.511275380753382


 ENERGY| Total FORCE_EVAL ( FIST ) energy (a.u.):            -15.511303341225954


 ENERGY| Total FORCE_EVAL ( FIST ) energy (a.u.):            -15.511234039631583


 ENERGY| Total FORCE_EVAL ( FIST ) energy (a.u.):            -15.511381117060035


 ENERGY| Total FORCE_EVAL ( FIST ) energy (a.u.):            -15.511298677719795


 ENERGY| Total FORCE_EVAL ( FIST ) energy (a.u.):            -15.511272384908551


 ENERGY| Total FORCE_EVAL ( FIST ) energy (a.u.):            -15.511320992233928


 ENERGY| Total FORCE_EVAL ( FIST ) energy (a.u.):            -15.511358598664238


 ENERGY| Total FORCE_EVAL ( FIST ) energy (a.u.):            -15.511247629783705


 ENERGY| Total FORCE_EVAL ( FIST ) energy (a.u.):            -15.511286079554994


 ENERGY| Total FORCE_EVAL ( FIST ) energy (a.u.):            -15.511410915612061


 ENERGY| Total FORCE_EVAL ( FIST ) energy (a.u.):            -15.511243021445669


 ENERGY| Total FORCE_EVAL ( FIST ) energy (a.u.):            -15.511349013147017


 ENERGY| Total FORCE_EVAL ( FIST ) energy (a.u.):            -15.511374652882758


 ENERGY| Total FORCE_EVAL ( FIST ) energy (a.u.):            -15.511345387922528


 ENERGY| Total FORCE_EVAL ( FIST ) energy (a.u.):            -15.511449121052358


 ENERGY| Total FORCE_EVAL ( FIST ) energy (a.u.):            -15.511512108359705


 ENERGY| Total FORCE_EVAL ( FIST ) energy (a.u.):            -15.512052156177361


 ENERGY| Total FORCE_EVAL ( FIST ) energy (a.u.):            -15.511308395477347


 ENERGY| Total FORCE_EVAL ( FIST ) energy (a.u.):            -15.510687969728529


 ENERGY| Total FORCE_EVAL ( FIST ) energy (a.u.):            -15.511043723201555


 ENERGY| Total FORCE_EVAL ( FIST ) energy (a.u.):            -15.511310561674836


 ENERGY| Total FORCE_EVAL ( FIST ) energy (a.u.):            -15.511705596541573


 ENERGY| Total FORCE_EVAL ( FIST ) energy (a.u.):            -15.511270974728880


 ENERGY| Total FORCE_EVAL ( FIST ) energy (a.u.):            -15.511649070167712


 ENERGY| Total FORCE_EVAL ( FIST ) energy (a.u.):            -15.511773136848053


 ENERGY| Total FORCE_EVAL ( FIST ) energy (a.u.):            -15.511434819950193


 ENERGY| Total FORCE_EVAL ( FIST ) energy (a.u.):            -15.511403495538799


 ENERGY| Total FORCE_EVAL ( FIST ) energy (a.u.):            -15.511422847225433


 ENERGY| Total FORCE_EVAL ( FIST ) energy (a.u.):            -15.511415004763029


 ENERGY| Total FORCE_EVAL ( FIST ) energy (a.u.):            -15.511415097726523


 ENERGY| Total FORCE_EVAL ( FIST ) energy (a.u.):            -15.511419239082631


 ENERGY| Total FORCE_EVAL ( FIST ) energy (a.u.):            -15.511467693543448


 ENERGY| Total FORCE_EVAL ( FIST ) energy (a.u.):            -15.511367745356106


 ENERGY| Total FORCE_EVAL ( FIST ) energy (a.u.):            -15.511341367859892


 ENERGY| Total FORCE_EVAL ( FIST ) energy (a.u.):            -15.511450058789020


 ENERGY| Total FORCE_EVAL ( FIST ) energy (a.u.):            -15.511526716947186


 ENERGY| Total FORCE_EVAL ( FIST ) energy (a.u.):            -15.511426876305054


 ENERGY| Total FORCE_EVAL ( FIST ) energy (a.u.):            -15.510877957439410


 ENERGY| Total FORCE_EVAL ( FIST ) energy (a.u.):            -15.510647849884874


 ENERGY| Total FORCE_EVAL ( FIST ) energy (a.u.):            -15.511111138762834


 ENERGY| Total FORCE_EVAL ( FIST ) energy (a.u.):            -15.511744120353558


 ENERGY| Total FORCE_EVAL ( FIST ) energy (a.u.):            -15.511669690257818


 ENERGY| Total FORCE_EVAL ( FIST ) energy (a.u.):            -15.511645209525533


 ENERGY| Total FORCE_EVAL ( FIST ) energy (a.u.):            -15.511559338757859


 ENERGY| Total FORCE_EVAL ( FIST ) energy (a.u.):            -15.511836514490792


 ENERGY| Total FORCE_EVAL ( FIST ) energy (a.u.):            -15.511361178287325


 ENERGY| Total FORCE_EVAL ( FIST ) energy (a.u.):            -15.511433069818997


 ENERGY| Total FORCE_EVAL ( FIST ) energy (a.u.):            -15.511414996943570


 ENERGY| Total FORCE_EVAL ( FIST ) energy (a.u.):            -15.511453196628729


 ENERGY| Total FORCE_EVAL ( FIST ) energy (a.u.):            -15.511437033323125


 ENERGY| Total FORCE_EVAL ( FIST ) energy (a.u.):            -15.511412451194014


 ENERGY| Total FORCE_EVAL ( FIST ) energy (a.u.):            -15.511452366230477


 ENERGY| Total FORCE_EVAL ( FIST ) energy (a.u.):            -15.511398533605318


 ENERGY| Total FORCE_EVAL ( FIST ) energy (a.u.):            -15.511311721949431


 ENERGY| Total FORCE_EVAL ( FIST ) energy (a.u.):            -15.511465178757394


 ENERGY| Total FORCE_EVAL ( FIST ) energy (a.u.):            -15.511417686993308


 ENERGY| Total FORCE_EVAL ( FIST ) energy (a.u.):            -15.511371595405080


 ENERGY| Total FORCE_EVAL ( FIST ) energy (a.u.):            -15.511301686938941


 ENERGY| Total FORCE_EVAL ( FIST ) energy (a.u.):            -15.511273596355036


 ENERGY| Total FORCE_EVAL ( FIST ) energy (a.u.):            -15.511959836318017


 ENERGY| Total FORCE_EVAL ( FIST ) energy (a.u.):            -15.512214388238036


 ENERGY| Total FORCE_EVAL ( FIST ) energy (a.u.):            -15.511582922132277


 ENERGY| Total FORCE_EVAL ( FIST ) energy (a.u.):            -15.511071397197821


 ENERGY| Total FORCE_EVAL ( FIST ) energy (a.u.):            -15.511153340398659


 ENERGY| Total FORCE_EVAL ( FIST ) energy (a.u.):            -15.511312359874459


 ENERGY| Total FORCE_EVAL ( FIST ) energy (a.u.):            -15.511338504761596


 ENERGY| Total FORCE_EVAL ( FIST ) energy (a.u.):            -15.511009417002079


 ENERGY| Total FORCE_EVAL ( FIST ) energy (a.u.):            -15.511451142292092


 ENERGY| Total FORCE_EVAL ( FIST ) energy (a.u.):            -15.511410824437867


 ENERGY| Total FORCE_EVAL ( FIST ) energy (a.u.):            -15.511456898227554


 ENERGY| Total FORCE_EVAL ( FIST ) energy (a.u.):            -15.511455174122364


 ENERGY| Total FORCE_EVAL ( FIST ) energy (a.u.):            -15.511430743518234


 ENERGY| Total FORCE_EVAL ( FIST ) energy (a.u.):            -15.511450214887855


 ENERGY| Total FORCE_EVAL ( FIST ) energy (a.u.):            -15.511478514250022


 ENERGY| Total FORCE_EVAL ( FIST ) energy (a.u.):            -15.511455233777719


 ENERGY| Total FORCE_EVAL ( FIST ) energy (a.u.):            -15.511537167634026


 ENERGY| Total FORCE_EVAL ( FIST ) energy (a.u.):            -15.511433608493812


 ENERGY| Total FORCE_EVAL ( FIST ) energy (a.u.):            -15.511416530000961


 ENERGY| Total FORCE_EVAL ( FIST ) energy (a.u.):            -15.511526902687761


 ENERGY| Total FORCE_EVAL ( FIST ) energy (a.u.):            -15.510861675274395


 ENERGY| Total FORCE_EVAL ( FIST ) energy (a.u.):            -15.511070405473411


 ENERGY| Total FORCE_EVAL ( FIST ) energy (a.u.):            -15.510767700113734


 ENERGY| Total FORCE_EVAL ( FIST ) energy (a.u.):            -15.511739278380068


 ENERGY| Total FORCE_EVAL ( FIST ) energy (a.u.):            -15.511583570714798


 ENERGY| Total FORCE_EVAL ( FIST ) energy (a.u.):            -15.511634993402515


 ENERGY| Total FORCE_EVAL ( FIST ) energy (a.u.):            -15.511536190333857


 ENERGY| Total FORCE_EVAL ( FIST ) energy (a.u.):            -15.511412783385152


 ENERGY| Total FORCE_EVAL ( FIST ) energy (a.u.):            -15.511784068889302


 ENERGY| Total FORCE_EVAL ( FIST ) energy (a.u.):            -15.511436970273813


 ENERGY| Total FORCE_EVAL ( FIST ) energy (a.u.):            -15.511444684773744


[...]


 ENERGY| Total FORCE_EVAL ( FIST ) energy (a.u.):            -15.511313559820579


 ENERGY| Total FORCE_EVAL ( FIST ) energy (a.u.):            -15.511437163113866


 ENERGY| Total FORCE_EVAL ( FIST ) energy (a.u.):            -15.511408637119574


 ENERGY| Total FORCE_EVAL ( FIST ) energy (a.u.):            -15.511420522377595


 ENERGY| Total FORCE_EVAL ( FIST ) energy (a.u.):            -15.511412142000346


 ENERGY| Total FORCE_EVAL ( FIST ) energy (a.u.):            -15.511404501466053


 ENERGY| Total FORCE_EVAL ( FIST ) energy (a.u.):            -15.511430941740372


 ENERGY| Total FORCE_EVAL ( FIST ) energy (a.u.):            -15.511466017399643


 ENERGY| Total FORCE_EVAL ( FIST ) energy (a.u.):            -15.511326988274266


 ENERGY| Total FORCE_EVAL ( FIST ) energy (a.u.):            -15.511458598778514


 ENERGY| Total FORCE_EVAL ( FIST ) energy (a.u.):            -15.511304530496290


 ENERGY| Total FORCE_EVAL ( FIST ) energy (a.u.):            -15.511414170155820


 ENERGY| Total FORCE_EVAL ( FIST ) energy (a.u.):            -15.511405658521861


 ENERGY| Total FORCE_EVAL ( FIST ) energy (a.u.):            -15.512284313714138


 ENERGY| Total FORCE_EVAL ( FIST ) energy (a.u.):            -15.511714705836344


 ENERGY| Total FORCE_EVAL ( FIST ) energy (a.u.):            -15.511591265136259


 ENERGY| Total FORCE_EVAL ( FIST ) energy (a.u.):            -15.511085511228559


 ENERGY| Total FORCE_EVAL ( FIST ) energy (a.u.):            -15.511165148976410


 ENERGY| Total FORCE_EVAL ( FIST ) energy (a.u.):            -15.511307869768331


 ENERGY| Total FORCE_EVAL ( FIST ) energy (a.u.):            -15.511013419344282


 ENERGY| Total FORCE_EVAL ( FIST ) energy (a.u.):            -15.511448782486205


 ENERGY| Total FORCE_EVAL ( FIST ) energy (a.u.):            -15.511552219224386


 ENERGY| Total FORCE_EVAL ( FIST ) energy (a.u.):            -15.511448265009513


 ENERGY| Total FORCE_EVAL ( FIST ) energy (a.u.):            -15.511429591726259


 ENERGY| Total FORCE_EVAL ( FIST ) energy (a.u.):            -15.511408082104856


 ENERGY| Total FORCE_EVAL ( FIST ) energy (a.u.):            -15.511452428808422


 ENERGY| Total FORCE_EVAL ( FIST ) energy (a.u.):            -15.511408376657872


 ENERGY| Total FORCE_EVAL ( FIST ) energy (a.u.):            -15.511416510701164


 ENERGY| Total FORCE_EVAL ( FIST ) energy (a.u.):            -15.511536558810622


 ENERGY| Total FORCE_EVAL ( FIST ) energy (a.u.):            -15.511430039813165


 ENERGY| Total FORCE_EVAL ( FIST ) energy (a.u.):            -15.511394515831798


 ENERGY| Total FORCE_EVAL ( FIST ) energy (a.u.):            -15.511428807019758


 ENERGY| Total FORCE_EVAL ( FIST ) energy (a.u.):            -15.511295460239944


 ENERGY| Total FORCE_EVAL ( FIST ) energy (a.u.):            -15.511395224686332


 ENERGY| Total FORCE_EVAL ( FIST ) energy (a.u.):            -15.511186584893727


 ENERGY| Total FORCE_EVAL ( FIST ) energy (a.u.):            -15.512318789867113


 ENERGY| Total FORCE_EVAL ( FIST ) energy (a.u.):            -15.511671478359991


 ENERGY| Total FORCE_EVAL ( FIST ) energy (a.u.):            -15.511638905549356


 ENERGY| Total FORCE_EVAL ( FIST ) energy (a.u.):            -15.511083016594352


 ENERGY| Total FORCE_EVAL ( FIST ) energy (a.u.):            -15.511156182890081


 ENERGY| Total FORCE_EVAL ( FIST ) energy (a.u.):            -15.511313131681234


 ENERGY| Total FORCE_EVAL ( FIST ) energy (a.u.):            -15.510976791354599


 ENERGY| Total FORCE_EVAL ( FIST ) energy (a.u.):            -15.511405409023970


 ENERGY| Total FORCE_EVAL ( FIST ) energy (a.u.):            -15.511457833986114


 ENERGY| Total FORCE_EVAL ( FIST ) energy (a.u.):            -15.511449104660219


 ENERGY| Total FORCE_EVAL ( FIST ) energy (a.u.):            -15.511412794325429


 ENERGY| Total FORCE_EVAL ( FIST ) energy (a.u.):            -15.511454356322758


 ENERGY| Total FORCE_EVAL ( FIST ) energy (a.u.):            -15.511447837230266


 ENERGY| Total FORCE_EVAL ( FIST ) energy (a.u.):            -15.511423595046718


 ENERGY| Total FORCE_EVAL ( FIST ) energy (a.u.):            -15.511477665405758


 ENERGY| Total FORCE_EVAL ( FIST ) energy (a.u.):            -15.511542337680320


 ENERGY| Total FORCE_EVAL ( FIST ) energy (a.u.):            -15.511434159275913


 ENERGY| Total FORCE_EVAL ( FIST ) energy (a.u.):            -15.511519336388071


 ENERGY| Total FORCE_EVAL ( FIST ) energy (a.u.):            -15.511351011612579


 ENERGY| Total FORCE_EVAL ( FIST ) energy (a.u.):            -15.511369012355386


 ENERGY| Total FORCE_EVAL ( FIST ) energy (a.u.):            -15.510774939410661


 ENERGY| Total FORCE_EVAL ( FIST ) energy (a.u.):            -15.511932042603478


 ENERGY| Total FORCE_EVAL ( FIST ) energy (a.u.):            -15.511932104414377


 ENERGY| Total FORCE_EVAL ( FIST ) energy (a.u.):            -15.511569502188017


 ENERGY| Total FORCE_EVAL ( FIST ) energy (a.u.):            -15.511113054121738


 ENERGY| Total FORCE_EVAL ( FIST ) energy (a.u.):            -15.511106496492390


 ENERGY| Total FORCE_EVAL ( FIST ) energy (a.u.):            -15.511834010055994


 ENERGY| Total FORCE_EVAL ( FIST ) energy (a.u.):            -15.511259936966221


 ENERGY| Total FORCE_EVAL ( FIST ) energy (a.u.):            -15.511408252542500


 ENERGY| Total FORCE_EVAL ( FIST ) energy (a.u.):            -15.511413186098251


 ENERGY| Total FORCE_EVAL ( FIST ) energy (a.u.):            -15.511416606101891


 ENERGY| Total FORCE_EVAL ( FIST ) energy (a.u.):            -15.511421983856453


 ENERGY| Total FORCE_EVAL ( FIST ) energy (a.u.):            -15.511411839836704


 ENERGY| Total FORCE_EVAL ( FIST ) energy (a.u.):            -15.511433542184019


 ENERGY| Total FORCE_EVAL ( FIST ) energy (a.u.):            -15.511406887000183


 ENERGY| Total FORCE_EVAL ( FIST ) energy (a.u.):            -15.511313048672044


 ENERGY| Total FORCE_EVAL ( FIST ) energy (a.u.):            -15.511471663681235


 ENERGY| Total FORCE_EVAL ( FIST ) energy (a.u.):            -15.511440366363487


 ENERGY| Total FORCE_EVAL ( FIST ) energy (a.u.):            -15.511419222464843


 ENERGY| Total FORCE_EVAL ( FIST ) energy (a.u.):            -15.511527732470583


 ENERGY| Total FORCE_EVAL ( FIST ) energy (a.u.):            -15.511375287327688


 ENERGY| Total FORCE_EVAL ( FIST ) energy (a.u.):            -15.511505208915981


 ENERGY| Total FORCE_EVAL ( FIST ) energy (a.u.):            -15.510594347708119


 ENERGY| Total FORCE_EVAL ( FIST ) energy (a.u.):            -15.511900780026439


 ENERGY| Total FORCE_EVAL ( FIST ) energy (a.u.):            -15.511262752196107


 ENERGY| Total FORCE_EVAL ( FIST ) energy (a.u.):            -15.511736161631502


 ENERGY| Total FORCE_EVAL ( FIST ) energy (a.u.):            -15.511098964516805


 ENERGY| Total FORCE_EVAL ( FIST ) energy (a.u.):            -15.511507461781218


 ENERGY| Total FORCE_EVAL ( FIST ) energy (a.u.):            -15.511860677560353


 ENERGY| Total FORCE_EVAL ( FIST ) energy (a.u.):            -15.511419524949005


 ENERGY| Total FORCE_EVAL ( FIST ) energy (a.u.):            -15.511423258092792


 ENERGY| Total FORCE_EVAL ( FIST ) energy (a.u.):            -15.511418099346939


 ENERGY| Total FORCE_EVAL ( FIST ) energy (a.u.):            -15.511403310156508


 ENERGY| Total FORCE_EVAL ( FIST ) energy (a.u.):            -15.511413656181803


 ENERGY| Total FORCE_EVAL ( FIST ) energy (a.u.):            -15.511420736485471


 ENERGY| Total FORCE_EVAL ( FIST ) energy (a.u.):            -15.511419272542859


 ENERGY| Total FORCE_EVAL ( FIST ) energy (a.u.):            -15.511415231220457


 ENERGY| Total FORCE_EVAL ( FIST ) energy (a.u.):            -15.511309536673599


 ENERGY| Total FORCE_EVAL ( FIST ) energy (a.u.):            -15.511431587187184


 ENERGY| Total FORCE_EVAL ( FIST ) energy (a.u.):            -15.511438084898890


 ENERGY| Total FORCE_EVAL ( FIST ) energy (a.u.):            -15.511407497933295


 ENERGY| Total FORCE_EVAL ( FIST ) energy (a.u.):            -15.511524525118505


 ENERGY| Total FORCE_EVAL ( FIST ) energy (a.u.):            -15.511700629915495


 ENERGY| Total FORCE_EVAL ( FIST ) energy (a.u.):            -15.510985452964997


 ENERGY| Total FORCE_EVAL ( FIST ) energy (a.u.):            -15.510679085715219


 ENERGY| Total FORCE_EVAL ( FIST ) energy (a.u.):            -15.511131528079069


 ENERGY| Total FORCE_EVAL ( FIST ) energy (a.u.):            -15.511512891689652


 ENERGY| Total FORCE_EVAL ( FIST ) energy (a.u.):            -15.511701910400461


 ENERGY| Total FORCE_EVAL ( FIST ) energy (a.u.):            -15.511448681184635


 ENERGY| Total FORCE_EVAL ( FIST ) energy (a.u.):            -15.511414251401296


 ENERGY| Total FORCE_EVAL ( FIST ) energy (a.u.):            -15.511756397472716


 ENERGY| Total FORCE_EVAL ( FIST ) energy (a.u.):            -15.511437660869095


 ENERGY| Total FORCE_EVAL ( FIST ) energy (a.u.):            -15.511444911000934


 ENERGY| Total FORCE_EVAL ( FIST ) energy (a.u.):            -15.511413701583029


 ENERGY| Total FORCE_EVAL ( FIST ) energy (a.u.):            -15.511415392276394


 ENERGY| Total FORCE_EVAL ( FIST ) energy (a.u.):            -15.511446566505276


 ENERGY| Total FORCE_EVAL ( FIST ) energy (a.u.):            -15.511414877911964


 ENERGY| Total FORCE_EVAL ( FIST ) energy (a.u.):            -15.511438202575954


 ENERGY| Total FORCE_EVAL ( FIST ) energy (a.u.):            -15.511445551742495


 ENERGY| Total FORCE_EVAL ( FIST ) energy (a.u.):            -15.511301684329588


 ENERGY| Total FORCE_EVAL ( FIST ) energy (a.u.):            -15.511418908883220


 ENERGY| Total FORCE_EVAL ( FIST ) energy (a.u.):            -15.511429074117471


 ENERGY| Total FORCE_EVAL ( FIST ) energy (a.u.):            -15.511524653292829


 ENERGY| Total FORCE_EVAL ( FIST ) energy (a.u.):            -15.510846396008949


 ENERGY| Total FORCE_EVAL ( FIST ) energy (a.u.):            -15.511462167832413


 ENERGY| Total FORCE_EVAL ( FIST ) energy (a.u.):            -15.510768812683645


 ENERGY| Total FORCE_EVAL ( FIST ) energy (a.u.):            -15.511671720643468


 ENERGY| Total FORCE_EVAL ( FIST ) energy (a.u.):            -15.511392323423447


 ENERGY| Total FORCE_EVAL ( FIST ) energy (a.u.):            -15.511672513814712


 ENERGY| Total FORCE_EVAL ( FIST ) energy (a.u.):            -15.511471065415426


 ENERGY| Total FORCE_EVAL ( FIST ) energy (a.u.):            -15.511501028351443


 ENERGY| Total FORCE_EVAL ( FIST ) energy (a.u.):            -15.511759171851093


 ENERGY| Total FORCE_EVAL ( FIST ) energy (a.u.):            -15.511443438934823


 ENERGY| Total FORCE_EVAL ( FIST ) energy (a.u.):            -15.511428917334513


 ENERGY| Total FORCE_EVAL ( FIST ) energy (a.u.):            -15.511419666197826


 ENERGY| Total FORCE_EVAL ( FIST ) energy (a.u.):            -15.511443272013770


 ENERGY| Total FORCE_EVAL ( FIST ) energy (a.u.):            -15.511429180125429


 ENERGY| Total FORCE_EVAL ( FIST ) energy (a.u.):            -15.511415602476246


 ENERGY| Total FORCE_EVAL ( FIST ) energy (a.u.):            -15.511424344582863


 ENERGY| Total FORCE_EVAL ( FIST ) energy (a.u.):            -15.511425725151692


 ENERGY| Total FORCE_EVAL ( FIST ) energy (a.u.):            -15.511300542431750


 ENERGY| Total FORCE_EVAL ( FIST ) energy (a.u.):            -15.511309884048915


 ENERGY| Total FORCE_EVAL ( FIST ) energy (a.u.):            -15.511476689481778


 ENERGY| Total FORCE_EVAL ( FIST ) energy (a.u.):            -15.511415637298127


 ENERGY| Total FORCE_EVAL ( FIST ) energy (a.u.):            -15.512149193246463


 ENERGY| Total FORCE_EVAL ( FIST ) energy (a.u.):            -15.510761751984377


 ENERGY| Total FORCE_EVAL ( FIST ) energy (a.u.):            -15.511497480745325


 ENERGY| Total FORCE_EVAL ( FIST ) energy (a.u.):            -15.511191723591022


 ENERGY| Total FORCE_EVAL ( FIST ) energy (a.u.):            -15.511794058743741


 ENERGY| Total FORCE_EVAL ( FIST ) energy (a.u.):            -15.511253833130100


 ENERGY| Total FORCE_EVAL ( FIST ) energy (a.u.):            -15.510957278585746


 ENERGY| Total FORCE_EVAL ( FIST ) energy (a.u.):            -15.511511419424311


 ENERGY| Total FORCE_EVAL ( FIST ) energy (a.u.):            -15.511450300940561


 ENERGY| Total FORCE_EVAL ( FIST ) energy (a.u.):            -15.511459431333094


 ENERGY| Total FORCE_EVAL ( FIST ) energy (a.u.):            -15.511444176442410


 ENERGY| Total FORCE_EVAL ( FIST ) energy (a.u.):            -15.511422301553413


 ENERGY| Total FORCE_EVAL ( FIST ) energy (a.u.):            -15.511458682638745


 ENERGY| Total FORCE_EVAL ( FIST ) energy (a.u.):            -15.511451775634209


 ENERGY| Total FORCE_EVAL ( FIST ) energy (a.u.):            -15.511415705373444


 ENERGY| Total FORCE_EVAL ( FIST ) energy (a.u.):            -15.511549845169597


 ENERGY| Total FORCE_EVAL ( FIST ) energy (a.u.):            -15.511421524750020


 ENERGY| Total FORCE_EVAL ( FIST ) energy (a.u.):            -15.511422811662344


 ENERGY| Total FORCE_EVAL ( FIST ) energy (a.u.):            -15.511353353134680


 ENERGY| Total FORCE_EVAL ( FIST ) energy (a.u.):            -15.511399667081848


 ENERGY| Total FORCE_EVAL ( FIST ) energy (a.u.):            -15.511312023173092


 ENERGY| Total FORCE_EVAL ( FIST ) energy (a.u.):            -15.512072158521530


 ENERGY| Total FORCE_EVAL ( FIST ) energy (a.u.):            -15.511513837702367


 ENERGY| Total FORCE_EVAL ( FIST ) energy (a.u.):            -15.512126353180415


 ENERGY| Total FORCE_EVAL ( FIST ) energy (a.u.):            -15.510993555817564


 ENERGY| Total FORCE_EVAL ( FIST ) energy (a.u.):            -15.511439987162984


 ENERGY| Total FORCE_EVAL ( FIST ) energy (a.u.):            -15.511229162868862


 ENERGY| Total FORCE_EVAL ( FIST ) energy (a.u.):            -15.511348560526454


 ENERGY| Total FORCE_EVAL ( FIST ) energy (a.u.):            -15.511400037017383


 ENERGY| Total FORCE_EVAL ( FIST ) energy (a.u.):            -15.510983901177646


 ENERGY| Total FORCE_EVAL ( FIST ) energy (a.u.):            -15.511417831115578


 ENERGY| Total FORCE_EVAL ( FIST ) energy (a.u.):            -15.511428367208168


 ENERGY| Total FORCE_EVAL ( FIST ) energy (a.u.):            -15.511454784449720


 ENERGY| Total FORCE_EVAL ( FIST ) energy (a.u.):            -15.511413598156771


 ENERGY| Total FORCE_EVAL ( FIST ) energy (a.u.):            -15.511434135358623


 ENERGY| Total FORCE_EVAL ( FIST ) energy (a.u.):            -15.511458920337313


 ENERGY| Total FORCE_EVAL ( FIST ) energy (a.u.):            -15.511446319851373


 ENERGY| Total FORCE_EVAL ( FIST ) energy (a.u.):            -15.511448354699956


 ENERGY| Total FORCE_EVAL ( FIST ) energy (a.u.):            -15.511547808082165


 ENERGY| Total FORCE_EVAL ( FIST ) energy (a.u.):            -15.511473247841053


 ENERGY| Total FORCE_EVAL ( FIST ) energy (a.u.):            -15.511340782046975


 ENERGY| Total FORCE_EVAL ( FIST ) energy (a.u.):            -15.511321972929787


 ENERGY| Total FORCE_EVAL ( FIST ) energy (a.u.):            -15.511079810247773


 ENERGY| Total FORCE_EVAL ( FIST ) energy (a.u.):            -15.512002210583940


 ENERGY| Total FORCE_EVAL ( FIST ) energy (a.u.):            -15.512161020607776


 ENERGY| Total FORCE_EVAL ( FIST ) energy (a.u.):            -15.511323929460362


 ENERGY| Total FORCE_EVAL ( FIST ) energy (a.u.):            -15.511140447533057


 ENERGY| Total FORCE_EVAL ( FIST ) energy (a.u.):            -15.511010167542846


 ENERGY| Total FORCE_EVAL ( FIST ) energy (a.u.):            -15.511737513135969


 ENERGY| Total FORCE_EVAL ( FIST ) energy (a.u.):            -15.511098694981630


 ENERGY| Total FORCE_EVAL ( FIST ) energy (a.u.):            -15.511238596161643


 ENERGY| Total FORCE_EVAL ( FIST ) energy (a.u.):            -15.511402295800936


 ENERGY| Total FORCE_EVAL ( FIST ) energy (a.u.):            -15.511423270920545


 ENERGY| Total FORCE_EVAL ( FIST ) energy (a.u.):            -15.511420632018801


 ENERGY| Total FORCE_EVAL ( FIST ) energy (a.u.):            -15.511413037509753


 ENERGY| Total FORCE_EVAL ( FIST ) energy (a.u.):            -15.511448079964772


 ENERGY| Total FORCE_EVAL ( FIST ) energy (a.u.):            -15.511424061862643


 ENERGY| Total FORCE_EVAL ( FIST ) energy (a.u.):            -15.511353062514527


 ENERGY| Total FORCE_EVAL ( FIST ) energy (a.u.):            -15.511492819314665


 ENERGY| Total FORCE_EVAL ( FIST ) energy (a.u.):            -15.511468192567992


 ENERGY| Total FORCE_EVAL ( FIST ) energy (a.u.):            -15.511438261890381


 -------------------------------------------------------------------------------
 -                                                                             -
 -                           R E F E R E N C E S                               -
 -                                                                             -
 -------------------------------------------------------------------------------
 
 CP2K version 6.1, the CP2K developers group (2018).
 CP2K is freely available from https://www.cp2k.org/ .

 Schuett, Ole; Messmer, Peter; Hutter, Juerg; VandeVondele, Joost. 
 Electronic Structure Calculations on Graphics Processing Units, John Wiley & Sons, Ltd, 173-190 (2016). 
 GPU-Accelerated Sparse Matrix-Matrix Multiplication for Linear Scaling Density Functional Theory.
 http://dx.doi.org/10.1002/9781118670712.ch8


 Borstnik, U; VandeVondele, J; Weber, V; Hutter, J. 
 PARALLEL COMPUTING, 40 (5-6), 47-58 (2014). 
 Sparse matrix multiplication: The distributed block-compressed sparse
 row library.
 http://dx.doi.org/10.1016/j.parco.2014.03.012


 Hutter, J; Iannuzzi, M; Schiffmann, F; VandeVondele, J. 
 WILEY INTERDISCIPLINARY REVIEWS-COMPUTATIONAL MOLECULAR SCIENCE, 4 (1), 15-25 (2014). 
 CP2K: atomistic simulations of condensed matter systems.
 http://dx.doi.org/10.1002/wcms.1159


 Frigo, M; Johnson, SG. 
 PROCEEDINGS OF THE IEEE, 93 (2), 216-231 (2005). 
 The design and implementation of FFTW3.
 http://dx.doi.org/10.1109/JPROC.2004.840301


 -------------------------------------------------------------------------------
 -                                                                             -
 -                                T I M I N G                                  -
 -                                                                             -
 -------------------------------------------------------------------------------
 SUBROUTINE                       CALLS  ASD         SELF TIME        TOTAL TIME
                                MAXIMUM       AVERAGE  MAXIMUM  AVERAGE  MAXIMUM
 CP2K                                 1  1.0    2.576    2.576   47.877   47.877
 rep_env_calc_e_f                  1831  2.0    0.656    0.656   40.864   40.864
 fist_calc_energy_force            1831  3.0    0.068    0.068   40.140   40.140
 force_nonbond                     1831  4.0   39.704   39.704   39.704   39.704
 diamat_all                           3  2.3    2.158    2.158    2.158    2.158
 build_D_matrix                       1  2.0    1.148    1.148    1.148    1.148
 write_vibrations_molden              1  2.0    1.010    1.010    1.010    1.010
 -------------------------------------------------------------------------------

 The number of warnings for this run is : 8
 
 -------------------------------------------------------------------------------
  **** **** ******  **  PROGRAM ENDED AT                 2020-03-19 17:57:28.189
 ***** ** ***  *** **   PROGRAM RAN ON                         bass-macbook.home
 **    ****   ******    PROGRAM RAN BY                                  bvanbeek
 ***** **    ** ** **   PROGRAM PROCESS ID                                 85992
  **** **  *******  **  PROGRAM STOPPED IN /Users/bvanbeek/Documents/GitHub/qmfl
                                           ows/test/test_files/plams_workdir.007
                                           /cp2k_mm_freq
