
Create H   file=/home/lars/adf2016.101/atomicdata/DZP/H
xc
  lda
End
End Input

 *******************************************************************************
 *                                                                             *
 *  -------------------------------------                                      *
 *   Amsterdam Density Functional  (ADF)         2016                          *
 *  -------------------------------------                                      *
 *                                               r51252 2016-03-08             *
 *                                                                             *
 *                                                                             *
 *                              =================                              *
 *                              |               |                              *
 *                              |     A D F     |                              *
 *                              |               |                              *
 *                              =================                              *
 *                                                                             *
 *                                                                             *
 *   Online information and documentation:  http://www.scm.com                 *
 *   E-mail:  support@scm.com   info@scm.com                                   *
 *                                                                             *
 *   Scientific publications using ADF results must be properly referenced     *
 *   See the User Manuals (or the web site) for recommended citations          *
 *   The terms and conditions of the End User License Agreement apply to       *
 *   the use of ADF, http://www.scm.com/Sales/LicAgreement.html                *
 *                                                                             *
 **********************  x86_64_linux_intel / intelmpi  ************************
 
 Licensed to: Dr. Rob van Nieuwpoort / eScience Center / Amsterdam / NL
 SCM User ID: u17149
  
 ADF 2016  RunTime: Feb28-2017 12:33:39  Nodes: 1  Procs: 1

 Temporary files are created in /tmp/kid_0.tQhzRn

 Hydrogen (DZP)



 ===========================
 A T T A C H E D   F I L E S
 ===========================
  
 CREATE - Data File:    /home/lars/adf2016.101/atomicdata/DZP/H
                        Hydrogen (DZP)



 ===============================
 M O D E L   P A R A M E T E R S
 ===============================
  
 DENSITY FUNCTIONAL POTENTIAL (scf)
    LDA:                               VWN                                      
    Gradient Corrections:              ---                                      

 SPIN  (restricted / unrestr.)
    Molecule:                          Restricted                               

 OTHER ASPECTS
    Relativistic Corrections:          ---                                      

    Nuclear Charge Density Model:      Point Charge Nuclei                                                                                                                                                                                     
    Core Treatment:                    Frozen Orbital(s)                        

    Hyperfine or Zeeman Interaction:   ---                                      



 =====================================
 S Y M M E T R Y ,   E L E C T R O N S
 =====================================
  
 Symmetry: ATOM

 Irreducible Representations, including subspecies
 -------------------------------------------------
 S
 P:x  P:y  P:z
 D:z2  D:x2-y2  D:xy  D:xz  D:yz
 F:z3  F:z  F:xyz  F:z2x  F:z2y  F:x  F:y


 Configuration of Valence Electrons
 ==================================

          Occupation Numbers
          -------------------------------------------------
 S        1
 P        0
 D        0
 F        0
          -------------------------------------------------

 Total:   1

 Net Charge: 0 (Nuclei minus Electrons)

 Preset values for MO occupations will be applied through SCF cycle no. 1000000
 Thereafter, the program will assign electrons to MOs that are spatially
 similar to the occupied MOs in a "reference" cycle ("KeepOrbitals").
 The reference cycle is always the PREVIOUS cycle: it will evolve with
 the SCF procedure.



 ================================
 (Slater-type)  F U N C T I O N S  ***  (Basis and Fit)  ***
 ================================
  

 Atom Type    1  (H)
 ==============

 Valence Basis Sets:   3
 -----------------------
   1 S    0.760000
   1 S    1.280000
   2 P    1.250000


 BAS: List of all Elementary Cartesian Basis Functions
 =====================================================

 The numbering in the list below (to the right of the function characteristics) is referred
 to in print-outs of MO eigenvectors and Mulliken populations in the BAS representation
 (as contrasted to the SFO representation).

 Notes:
 1. The functions are characterized by a polynomial prefactor (powers of x,y,z and r) and
    an exponential decay factor alpha.
 2. Since the basis sets are specific for an atom TYPE, the individual functions occur on
    all atoms of that type.
 3. The word 'Core' in the left margin signals that it is a Core Function (CF) : not a
    degree of freedom in the valence set, but only used to ensure orthogonalization of
    the other valence basis functions on the frozen Core Orbitals.


 (power of) X  Y  Z  R     Alpha  on Atom
            ==========     =====     ==========

 H                                    1
                                  ---------------------------------------------------------------------------
            0  0  0  0     0.760      1
            0  0  0  0     1.280      2
            1  0  0  0     1.250      3
            0  1  0  0     1.250      4
            0  0  1  0     1.250      5

 Total number of charge fitting functions (nprimf)        50
 Total number of Cartesian basis functions (naos)          5
 Total number of Cartesian core functions  (ncos)          0



 BAS: List of all Elementary Cartesian Basis Functions
 =====================================================

 The numbering in the list below (to the right of the function characteristics) is referred
 to in print-outs of MO eigenvectors and Mulliken populations in the BAS representation
 (as contrasted to the SFO representation).

 Notes:
 1. The functions are characterized by a polynomial prefactor (powers of x,y,z and r) and
    an exponential decay factor alpha.
 2. Since the basis sets are specific for an atom TYPE, the individual functions occur on
    all atoms of that type.
 3. The word 'Core' in the left margin signals that it is a Core Function (CF) : not a
    degree of freedom in the valence set, but only used to ensure orthogonalization of
    the other valence basis functions on the frozen Core Orbitals.


 (power of) X  Y  Z  R     Alpha  on Atom
            ==========     =====     ==========

 H                                    1
                                  ---------------------------------------------------------------------------
            0  0  0  0     0.760      1
            0  0  0  0     1.280      2
            1  0  0  0     1.250      3
            0  1  0  0     1.250      4
            0  0  1  0     1.250      5
1
 ***************************************************************************************************



                                              ***********************
                                              *  T E C H N I C A L  *
                                              ***********************
  



 =============================================================
 P A R A L L E L I Z A T I O N  and  V E C T O R I Z A T I O N
 =============================================================
  
 Nr of parallel processes:                                1
 Maximum vector length in NumInt loops:                 128

 IO buffersize (Mb):                                     64.000000



 =====================
 S C F   U P D A T E S
 =====================
  
 Max. nr. of cycles:                               300
 Convergence criterion:                              0.0000000100
   secondary criterion:                              0.0000000100

 Mix parameter (when DIIS does not apply):           0.2000000000
 Special mix parameter for the first cycle:          1.0000000000
 Mixed ADIIS+DIIS will be used
    Max number of expansion vectors:                10
    Pure ADIIS when Max([F,P]) is above              0.1000000000
    Pure DIIS when Max([F,P]) is below               0.0010000000
 Automatic ElectronSmearing (in case of problematic SCF convergence) disabled



 =================
 P R E C I S I O N  ***  (General: NumInt, NeglectFunctionTails, ...)  ***
 =================
  

 NumInt:           Target precision:                12.0000000000
 -------           Initial precision:               10.0000000000
                   Min. precision (optimization):   10.0000000000

 Neglect Functions:          Basis functions:        0.1000000000E-13
 ------------------          Fit functions:          0.1000000000E-13



 ===========================
 L I N E A R   S C A L I N G
 ===========================
  

 Cut-off radii density fit:                        0.1000000000E-97
 Overlap cut-off criterion AO matrix elements:     0.1000000000E-97
 Cut-offs for Coulomb potential and fitted density:0.1000000000E-97
 Cut-off criterion for Coulomb multipole terms:    0.1000000000E-97
 Progressive Convergence parameter:                 0.000000000    
1
 ***************************************************************************************************



                                            ***************************
                                            *  C O M P U T A T I O N  *
                                            ***************************
  

 Number of elements of the density matrix on this node (used, total):        15        15



 ===========================================
 Numerical Integration : Fuzzy Cells (Becke)
 ===========================================
  
 Becke grid quality: VERYGOOD       
  
 Lebedev angular grid order:             min:  13 max:  41
 Nr. of radial points:                   min:  64 max:  64

 Total nr. of points:         64
 Nr. of blocks:                1
 Block length:                64
 Nr. of dummy points:          0


 Test of Precision of the Numerical Integration Grid
 ===================================================

 Integral of the Total Core Density:                   0.00000000000000



 ========================
 Density Fitting (zlmFit)
 ========================
  
 ZlmFit Fit Quality: VERYGOOD       
  
 Max L-expansion:                        min:   0 max:   0
 Nr. of radial interpolation points:     min: 120 max: 120



 =====
 S C F  ***  ScaSCF  ***
 =====
  

 CYCLE    1
 SCF Error: norm([F,P])=      0.000000000000, max([F,P])=      0.000000000000
 orbitals (Q,E):
 ---------------
 S :1...2            ( 1.00    -0.4983)  ( 0.00     0.1718)
 P :1...1            ( 0.00     0.1562)

 CYCLE    2
 SCF Error: norm([F,P])=      0.048210423939, max([F,P])=      0.048210423939
 orbitals (Q,E):
 ---------------
 S :1...2            ( 1.00    -0.2168)  ( 0.00     0.4195)
 P :1...1            ( 0.00     0.4168)

 CYCLE    3
  SDIIS (wt  0.000):  0.1490  0.8510
 A-DIIS (wt  1.000):  0.0000  1.0000
  DIIS coefficients:  0.0000  1.0000
 SCF Error: norm([F,P])=      0.008443956902, max([F,P])=      0.008443956902
 orbitals (Q,E):
 ---------------
 S :1...2            ( 1.00    -0.2375)  ( 0.00     0.4001)
 P :1...1            ( 0.00     0.3997)

 CYCLE    4
  SDIIS (wt  0.996):  0.1442  0.8558
 A-DIIS (wt  0.004):  0.0000  1.0000
  DIIS coefficients:  0.1436  0.8564
 SCF Error: norm([F,P])=      0.001423321792, max([F,P])=      0.001423321792
 orbitals (Q,E):
 ---------------
 S :1...2            ( 1.00    -0.2344)  ( 0.00     0.4029)
 P :1...1            ( 0.00     0.4022)

 CYCLE    5
  SDIIS (wt  1.000):  0.0018  0.9982
  DIIS coefficients:  0.0018  0.9982
 SCF Error: norm([F,P])=      0.000002538735, max([F,P])=      0.000002538735
 orbitals (Q,E):
 ---------------
 S :1...2            ( 1.00    -0.2344)  ( 0.00     0.4029)
 P :1...1            ( 0.00     0.4022)

 CYCLE    6
  SDIIS (wt  1.000): -0.0002  1.0002
  DIIS coefficients: -0.0002  1.0002
 SCF Error: norm([F,P])=      0.000000000445, max([F,P])=      0.000000000445
 orbitals (Q,E):
 ---------------
 S :1...2            ( 1.00    -0.2344)  ( 0.00     0.4029)
 P :1...1            ( 0.00     0.4022)

 SCF CONVERGED

 CYCLE    7
1
 ***************************************************************************************************



                                                *******************
                                                *  R E S U L T S  *
                                                *******************
  
 *** Setting up for NEW gradients in Focky
 *** Using FIT density in Focky

 Orbital Energies, per Irrep and Spin:
 ======================================
                        Occup              E (au)              E (eV)       Diff (eV) with prev. cycle
                        -----      --------------------        ------       --------------------------
 S
               1        1.000     -0.23441710465432E+00        -6.379              -4.23E-14
               2        0.000      0.40291872172070E+00        10.964
 P
               1        0.000      0.40223463399148E+00        10.945


 Partially Occupied:
               1 S                -0.23441710465432E+00
  
 LUMO :        1 P                 0.40223463399148E+00
  


 Orbital Energies, all Irreps
 ========================================

 Irrep        no.  (spin)   Occup              E (au)                E (eV)
 ---------------------------------------------------------------------------
 S             1             1.00       -0.23441710465432E+00        -6.3788
 P             1             0.00        0.40223463399148E+00        10.9454
 S             2             0.00        0.40291872172070E+00        10.9640


 All Electron Calculation, thus no Orbital Energies of the Core Orbitals are calculated



 =======================================
 M U L L I K E N   P O P U L A T I O N S
 =======================================
  
 The survey below gives for each atom:
 a) the total charge (Z minus electrons)
 b) the net spin polarization (nr of electrons spin-A minus spin-B)
 c) for each spin the atomic electron valence density (integrated) per L-value.

 Atom              Charge    Spin density          S         P         D         F
 ----              ------    ------------       ------    ------    ------    ------
 1 H               0.0000                       1.0000    0.0000    0.0000    0.0000

 Populations of individual BAS functions
 ----------------------------------------
 1 H            0.6931  0.3069  0.0000  0.0000  0.0000

 Gross Charges per Atom (Z minus electrons)
 ==========================================
             0.0000
 Net Total:  0.00000000



 =======================================================================
 Electrostatic potential at the Nuclei due to electrons and other nuclei
 =======================================================================
  
         Atom                  Potential
         ----                  ---------
     1)   H                   0.91958212
 
 
 ========================
 No memory problems found
 ========================
 
 Maximum number of active allocate calls:         303
 
 *******************************************************************************

                             A D F   E X I T
 NORMAL TERMINATION



 =================
 Timing Statistics
 =================
  
 Total Used :                     CPU=        0.20      System=        0.01     Elapsed=        0.22

 Calls  Section                     ( Mean, Percentage )
 ---------------------------------------------------------------------------------------------------
     3  ><      ................      0.00    0.16             0.00    1.72             0.00    0.25
     1  INIT    ................      0.01    3.51             0.01   59.57             0.02    7.27
     1  GEOMET  ................      0.00    2.11             0.00    3.03             0.00    2.13
     1  INPUTA  ................      0.00    0.90             0.00    0.00             0.00    0.73
     1  MAINSY  ................      0.00    1.69             0.00    0.00             0.00    1.27
     1  SYMFIT  ................      0.00    0.00             0.00    0.00             0.00    0.09
     1  CORORT  ................      0.00    0.00             0.00    0.00             0.00    0.07
     1  SYMORB  ................      0.00    0.00             0.00    0.00             0.00    0.14
     1  CLSMAT  ................      0.00    0.67             0.00    0.00             0.00    0.78
     1  ORTHON  ................      0.00    0.32             0.00    0.00             0.00    0.29
     1  GENPT   ................      0.01    2.66             0.00    0.00             0.00    2.19
     1  PTBAS   ................      0.00    0.36             0.00    0.00             0.00    0.46
     7  FOCKY   ................      0.02   71.25             0.00   34.34             0.02   68.87
     7  FOCKTR  ................      0.00    1.03             0.00    0.33             0.00    1.02
     7  SDIIS   ................      0.00    2.01             0.00    1.01             0.00    1.97
     1  COREPS  ................      0.01    5.87             0.00    0.00             0.01    5.49
     1  POPAN   ................      0.00    0.79             0.00    0.00             0.00    0.66
     1  DEBYE   ................      0.00    0.12             0.00    0.00             0.00    0.11
     1  EXIT PROCEDURE .........      0.01    6.56             0.00    0.00             0.01    6.20


 Currently Open Files (EXIT00)
 ====================

 Unit    Access Format  Status   Type       Ident (file)
 -------------------------------------------------------
   3      SEQ    FORM   TRANSP  NORMAL      LOGFILE
                                          ( logfile )


 Buffered I/O statistics
 =======================
 Memory available:                     67108864
 Number of records fitting in memory:     16131
 Input :   1.0% of                         1497  *4k bytes
 Output:  12.4% of                         1085  *4k bytes
 Records from serial files evicted:           0
                    others evicted:           0
 Hash table lookups:       7138 with          0 conflicts (  0.00%)

 ***************************************************************************************************
 (LOGFILE)
 <Feb28-2017> <12:33:39>  ADF 2016  RunTime: Feb28-2017 12:33:39  Nodes: 1  Procs: 1
 <Feb28-2017> <12:33:39>  Hydrogen (DZP)
 <Feb28-2017> <12:33:39>  RunType   : CREATE
 <Feb28-2017> <12:33:39>  Net Charge: 0 (Nuclei minus Electrons)
 <Feb28-2017> <12:33:39>  Symmetry  : ATOM
  Coordinates
    Atom         X           Y           Z   (Angstrom)
    1.H         0.000000    0.000000    0.000000
 <Feb28-2017> <12:33:39>  >>>> CORORT
 <Feb28-2017> <12:33:39>  >>>> CLSMAT
 <Feb28-2017> <12:33:39>  >>>> ORTHON
 <Feb28-2017> <12:33:39>  >>>> GENPT
 <Feb28-2017> <12:33:39>  Block Length=  64
 <Feb28-2017> <12:33:39>  >>>> PTBAS
 <Feb28-2017> <12:33:39>  >>>> CYCLE
 <Feb28-2017> <12:33:39>              |Error|         MaxErr       Wt(A-DIIS)
 <Feb28-2017> <12:33:39>      1      0.00000000      0.00000000
 <Feb28-2017> <12:33:39>      2      0.04821042      0.04821042
 <Feb28-2017> <12:33:39>      3      0.00844396      0.00844396    100.0
 <Feb28-2017> <12:33:39>      4      0.00142332      0.00142332      0.4
 <Feb28-2017> <12:33:39>      5      0.00000254      0.00000254      0.0
 <Feb28-2017> <12:33:40>      6      0.00000000      0.00000000      0.0
 <Feb28-2017> <12:33:40>  SCF converged
 <Feb28-2017> <12:33:40>      7      0.00000000      0.00000000      0.0
 <Feb28-2017> <12:33:40>   Solutions with partially occupied orbitals may not be
 <Feb28-2017> <12:33:40>   lowest in energy. You might consider lowering the
 <Feb28-2017> <12:33:40>   symmetry in the input and explicitly specifying integer
 <Feb28-2017> <12:33:40>   occupations. In that case always check that you obtain
 <Feb28-2017> <12:33:40>   an aufbau solution.
 <Feb28-2017> <12:33:40>  >>>> POPAN
 <Feb28-2017> <12:33:40>  >>>> DEBYE
 <Feb28-2017> <12:33:40>  NORMAL TERMINATION
 <Feb28-2017> <12:33:40>  END

Create N   file=/home/lars/adf2016.101/atomicdata/DZP/N.1s
xc
  lda
End
End Input

 *******************************************************************************
 *                                                                             *
 *  -------------------------------------                                      *
 *   Amsterdam Density Functional  (ADF)         2016                          *
 *  -------------------------------------                                      *
 *                                               r51252 2016-03-08             *
 *                                                                             *
 *                                                                             *
 *                              =================                              *
 *                              |               |                              *
 *                              |     A D F     |                              *
 *                              |               |                              *
 *                              =================                              *
 *                                                                             *
 *                                                                             *
 *   Online information and documentation:  http://www.scm.com                 *
 *   E-mail:  support@scm.com   info@scm.com                                   *
 *                                                                             *
 *   Scientific publications using ADF results must be properly referenced     *
 *   See the User Manuals (or the web site) for recommended citations          *
 *   The terms and conditions of the End User License Agreement apply to       *
 *   the use of ADF, http://www.scm.com/Sales/LicAgreement.html                *
 *                                                                             *
 **********************  x86_64_linux_intel / intelmpi  ************************
 
 Licensed to: Dr. Rob van Nieuwpoort / eScience Center / Amsterdam / NL
 SCM User ID: u17149
  
 ADF 2016  RunTime: Feb28-2017 12:33:40  Nodes: 1  Procs: 1

 Temporary files are created in /tmp/kid_0.jnp1Iw

 Nitrogen (DZP, 1s frozen)



 ===========================
 A T T A C H E D   F I L E S
 ===========================
  
 CREATE - Data File:    /home/lars/adf2016.101/atomicdata/DZP/N.1s
                        Nitrogen (DZP, 1s frozen)



 ===============================
 M O D E L   P A R A M E T E R S
 ===============================
  
 DENSITY FUNCTIONAL POTENTIAL (scf)
    LDA:                               VWN                                      
    Gradient Corrections:              ---                                      

 SPIN  (restricted / unrestr.)
    Molecule:                          Restricted                               

 OTHER ASPECTS
    Relativistic Corrections:          ---                                      

    Nuclear Charge Density Model:      Point Charge Nuclei                                                                                                                                                                                     
    Core Treatment:                    Frozen Orbital(s)                        

    Hyperfine or Zeeman Interaction:   ---                                      



 =====================================
 S Y M M E T R Y ,   E L E C T R O N S
 =====================================
  
 Symmetry: ATOM

 Irreducible Representations, including subspecies
 -------------------------------------------------
 S
 P:x  P:y  P:z
 D:z2  D:x2-y2  D:xy  D:xz  D:yz
 F:z3  F:z  F:xyz  F:z2x  F:z2y  F:x  F:y


 Configuration of Valence Electrons
 ==================================

          Occupation Numbers
          -------------------------------------------------
 S        2
 P        3
 D        0
 F        0
          -------------------------------------------------

 Total:   5

 Net Charge: 0 (Nuclei minus Electrons)

 Preset values for MO occupations will be applied through SCF cycle no. 1000000
 Thereafter, the program will assign electrons to MOs that are spatially
 similar to the occupied MOs in a "reference" cycle ("KeepOrbitals").
 The reference cycle is always the PREVIOUS cycle: it will evolve with
 the SCF procedure.



 ================================
 (Slater-type)  F U N C T I O N S  ***  (Basis and Fit)  ***
 ================================
  

 Atom Type    1  (N)
 ==============

 Valence Basis Sets:   6
 -----------------------
   1 S    6.380000
   2 S    1.460000
   2 S    2.380000
   2 P    1.120000
   2 P    2.580000
   3 D    2.200000

 Frozen Core Shells
 ------------------
    S:  1


 BAS: List of all Elementary Cartesian Basis Functions
 =====================================================

 The numbering in the list below (to the right of the function characteristics) is referred
 to in print-outs of MO eigenvectors and Mulliken populations in the BAS representation
 (as contrasted to the SFO representation).

 Notes:
 1. The functions are characterized by a polynomial prefactor (powers of x,y,z and r) and
    an exponential decay factor alpha.
 2. Since the basis sets are specific for an atom TYPE, the individual functions occur on
    all atoms of that type.
 3. The word 'Core' in the left margin signals that it is a Core Function (CF) : not a
    degree of freedom in the valence set, but only used to ensure orthogonalization of
    the other valence basis functions on the frozen Core Orbitals.


 (power of) X  Y  Z  R     Alpha  on Atom
            ==========     =====     ==========

 N                                    1
                                  ---------------------------------------------------------------------------
    Core    0  0  0  0     6.380      1
            0  0  0  1     1.460      2
            0  0  0  1     2.380      3
            1  0  0  0     1.120      4
            0  1  0  0     1.120      5
            0  0  1  0     1.120      6
            1  0  0  0     2.580      7
            0  1  0  0     2.580      8
            0  0  1  0     2.580      9
            2  0  0  0     2.200     10
            1  1  0  0     2.200     11
            1  0  1  0     2.200     12
            0  2  0  0     2.200     13
            0  1  1  0     2.200     14
            0  0  2  0     2.200     15

 Total number of charge fitting functions (nprimf)        82
 Total number of Cartesian basis functions (naos)         15
 Total number of Cartesian core functions  (ncos)          1



 BAS: List of all Elementary Cartesian Basis Functions
 =====================================================

 The numbering in the list below (to the right of the function characteristics) is referred
 to in print-outs of MO eigenvectors and Mulliken populations in the BAS representation
 (as contrasted to the SFO representation).

 Notes:
 1. The functions are characterized by a polynomial prefactor (powers of x,y,z and r) and
    an exponential decay factor alpha.
 2. Since the basis sets are specific for an atom TYPE, the individual functions occur on
    all atoms of that type.
 3. The word 'Core' in the left margin signals that it is a Core Function (CF) : not a
    degree of freedom in the valence set, but only used to ensure orthogonalization of
    the other valence basis functions on the frozen Core Orbitals.


 (power of) X  Y  Z  R     Alpha  on Atom
            ==========     =====     ==========

 N                                    1
                                  ---------------------------------------------------------------------------
    Core    0  0  0  0     6.380      1
            0  0  0  1     1.460      2
            0  0  0  1     2.380      3
            1  0  0  0     1.120      4
            0  1  0  0     1.120      5
            0  0  1  0     1.120      6
            1  0  0  0     2.580      7
            0  1  0  0     2.580      8
            0  0  1  0     2.580      9
            2  0  0  0     2.200     10
            1  1  0  0     2.200     11
            1  0  1  0     2.200     12
            0  2  0  0     2.200     13
            0  1  1  0     2.200     14
            0  0  2  0     2.200     15
1
 ***************************************************************************************************



                                              ***********************
                                              *  T E C H N I C A L  *
                                              ***********************
  



 =============================================================
 P A R A L L E L I Z A T I O N  and  V E C T O R I Z A T I O N
 =============================================================
  
 Nr of parallel processes:                                1
 Maximum vector length in NumInt loops:                 128

 IO buffersize (Mb):                                     64.000000



 =====================
 S C F   U P D A T E S
 =====================
  
 Max. nr. of cycles:                               300
 Convergence criterion:                              0.0000000100
   secondary criterion:                              0.0000000100

 Mix parameter (when DIIS does not apply):           0.2000000000
 Special mix parameter for the first cycle:          1.0000000000
 Mixed ADIIS+DIIS will be used
    Max number of expansion vectors:                10
    Pure ADIIS when Max([F,P]) is above              0.1000000000
    Pure DIIS when Max([F,P]) is below               0.0010000000
 Automatic ElectronSmearing (in case of problematic SCF convergence) disabled



 =================
 P R E C I S I O N  ***  (General: NumInt, NeglectFunctionTails, ...)  ***
 =================
  

 NumInt:           Target precision:                12.0000000000
 -------           Initial precision:               10.0000000000
                   Min. precision (optimization):   10.0000000000

 Neglect Functions:          Basis functions:        0.1000000000E-13
 ------------------          Fit functions:          0.1000000000E-13



 ===========================
 L I N E A R   S C A L I N G
 ===========================
  

 Cut-off radii density fit:                        0.1000000000E-97
 Overlap cut-off criterion AO matrix elements:     0.1000000000E-97
 Cut-offs for Coulomb potential and fitted density:0.1000000000E-97
 Cut-off criterion for Coulomb multipole terms:    0.1000000000E-97
 Progressive Convergence parameter:                 0.000000000    
1
 ***************************************************************************************************



                                            ***************************
                                            *  C O M P U T A T I O N  *
                                            ***************************
  

 Number of elements of the density matrix on this node (used, total):       120       120



 ===========================================
 Numerical Integration : Fuzzy Cells (Becke)
 ===========================================
  
 Becke grid quality: VERYGOOD       
  
 Lebedev angular grid order:             min:  13 max:  41
 Nr. of radial points:                   min:  68 max:  68

 Total nr. of points:         68
 Nr. of blocks:                1
 Block length:                68
 Nr. of dummy points:          0


 Test of Precision of the Numerical Integration Grid
 ===================================================

 Integral of the Total Core Density:                   1.99999999979028
 Relative Error:                                      -1.049E-10



 ========================
 Density Fitting (zlmFit)
 ========================
  
 ZlmFit Fit Quality: VERYGOOD       
  
 Max L-expansion:                        min:   0 max:   0
 Nr. of radial interpolation points:     min: 150 max: 150



 =====
 S C F  ***  ScaSCF  ***
 =====
  

 CYCLE    1
 SCF Error: norm([F,P])=      0.000000000000, max([F,P])=      0.000000000000
 orbitals (Q,E):
 ---------------
 S :1...2            ( 2.00    -3.7692)  ( 0.00    -1.5172)
 P :1...2            ( 3.00    -3.4759)  ( 0.00    -1.4599)
 D :1...1            ( 0.00    -1.3104)

 CYCLE    2
 SCF Error: norm([F,P])=      1.553521918191, max([F,P])=      1.265459514869
 orbitals (Q,E):
 ---------------
 S :1...2            ( 2.00    -0.1880)  ( 0.00     1.2410)
 P :1...2            ( 3.00     0.1556)  ( 0.00     1.1989)
 D :1...1            ( 0.00     1.6453)

 CYCLE    3
  SDIIS (wt  0.000):  0.4660  0.5340
 A-DIIS (wt  1.000):  0.3342  0.6658
  DIIS coefficients:  0.3342  0.6658
 SCF Error: norm([F,P])=      1.355960599512, max([F,P])=      1.045174026489
 orbitals (Q,E):
 ---------------
 S :1...2            ( 2.00    -0.8164)  ( 0.00     0.6055)
 P :1...2            ( 3.00    -0.4015)  ( 0.00     0.4852)
 D :1...1            ( 0.00     1.1279)

 CYCLE    4
  SDIIS (wt  0.000):  0.1937  0.8063
 A-DIIS (wt  1.000):  0.0000  1.0000
  DIIS coefficients:  0.0000  1.0000
 SCF Error: norm([F,P])=      0.326499353255, max([F,P])=      0.232888094159
 orbitals (Q,E):
 ---------------
 S :1...2            ( 2.00    -0.5745)  ( 0.00     0.7834)
 P :1...2            ( 3.00    -0.1706)  ( 0.00     0.6708)
 D :1...1            ( 0.00     1.3153)

 CYCLE    5
  SDIIS (wt  0.000): -0.3077  1.3077
 A-DIIS (wt  1.000):  0.0000  1.0000
  DIIS coefficients:  0.0000  1.0000
 SCF Error: norm([F,P])=      0.320722219414, max([F,P])=      0.230210721087
 orbitals (Q,E):
 ---------------
 S :1...2            ( 2.00    -0.7920)  ( 0.00     0.6066)
 P :1...2            ( 3.00    -0.3804)  ( 0.00     0.4849)
 D :1...1            ( 0.00     1.1518)

 CYCLE    6
  SDIIS (wt  0.000):  0.4803  0.5197
 A-DIIS (wt  1.000):  0.4669  0.5331
  DIIS coefficients:  0.4669  0.5331
 SCF Error: norm([F,P])=      0.296378987384, max([F,P])=      0.212572256044
 orbitals (Q,E):
 ---------------
 S :1...2            ( 2.00    -0.6793)  ( 0.00     0.6938)
 P :1...2            ( 3.00    -0.2691)  ( 0.00     0.5742)
 D :1...1            ( 0.00     1.2348)

 CYCLE    7
  SDIIS (wt  0.944):  0.0296  0.9704
 A-DIIS (wt  0.056):  0.0000  1.0000
  DIIS coefficients:  0.0280  0.9720
 SCF Error: norm([F,P])=      0.009045365394, max([F,P])=      0.006537566936
 orbitals (Q,E):
 ---------------
 S :1...2            ( 2.00    -0.6821)  ( 0.00     0.6910)
 P :1...2            ( 3.00    -0.2719)  ( 0.00     0.5712)
 D :1...1            ( 0.00     1.2330)

 CYCLE    8
  SDIIS (wt  1.000):  0.0413  0.9587
  DIIS coefficients:  0.0413  0.9587
 SCF Error: norm([F,P])=      0.000389701739, max([F,P])=      0.000276746690
 orbitals (Q,E):
 ---------------
 S :1...2            ( 2.00    -0.6819)  ( 0.00     0.6911)
 P :1...2            ( 3.00    -0.2717)  ( 0.00     0.5714)
 D :1...1            ( 0.00     1.2331)

 CYCLE    9
  SDIIS (wt  1.000):  0.0091  0.9909
  DIIS coefficients:  0.0091  0.9909
 SCF Error: norm([F,P])=      0.000003575604, max([F,P])=      0.000002543717
 orbitals (Q,E):
 ---------------
 S :1...2            ( 2.00    -0.6819)  ( 0.00     0.6911)
 P :1...2            ( 3.00    -0.2717)  ( 0.00     0.5713)
 D :1...1            ( 0.00     1.2331)

 CYCLE   10
  SDIIS (wt  1.000): -0.0009  1.0009
  DIIS coefficients: -0.0009  1.0009
 SCF Error: norm([F,P])=      0.000000003234, max([F,P])=      0.000000002299
 orbitals (Q,E):
 ---------------
 S :1...2            ( 2.00    -0.6819)  ( 0.00     0.6911)
 P :1...2            ( 3.00    -0.2717)  ( 0.00     0.5713)
 D :1...1            ( 0.00     1.2331)

 SCF CONVERGED

 CYCLE   11
1
 ***************************************************************************************************



                                                *******************
                                                *  R E S U L T S  *
                                                *******************
  
 *** Setting up for NEW gradients in Focky
 *** Using FIT density in Focky

 Orbital Energies, per Irrep and Spin:
 ======================================
                        Occup              E (au)              E (eV)       Diff (eV) with prev. cycle
                        -----      --------------------        ------       --------------------------
 S
               1        2.000     -0.68191137691310E+00       -18.556               1.34E-11
               2        0.000      0.69114583640426E+00        18.807
 P
               1        3.000     -0.27173345057784E+00        -7.394               1.31E-11
               2        0.000      0.57134959564944E+00        15.547
 D
               1        0.000      0.12330752997853E+01        33.554


 Partially Occupied:
               1 P                -0.27173345057784E+00
  
 HOMO :        1 S                -0.68191137691310E+00
 LUMO :        2 P                 0.57134959564944E+00
  


 Orbital Energies, all Irreps
 ========================================

 Irrep        no.  (spin)   Occup              E (au)                E (eV)
 ---------------------------------------------------------------------------
 S             1             2.00       -0.68191137691310E+00       -18.5558
 P             1             3.00       -0.27173345057784E+00        -7.3942
 P             2             0.00        0.57134959564944E+00        15.5472
 S             2             0.00        0.69114583640426E+00        18.8070
 D             1             0.00        0.12330752997853E+01        33.5537


 Orbital Energies of the Core Orbitals:
 ======================================
 (Note that the atoms are grouped by atomtype, see the labels, and may hence NOT be in input order)

 AtomType  Orbital  Atom                   E (au)                        E (eV)
 --------  -------  ----           --------------------        ----------------
 N           1S        1          -0.14027273943839E+02                -381.702



 =======================================
 M U L L I K E N   P O P U L A T I O N S
 =======================================
  
 The survey below gives for each atom:
 a) the total charge (Z minus electrons)
 b) the net spin polarization (nr of electrons spin-A minus spin-B)
 c) for each spin the atomic electron valence density (integrated) per L-value.

 Atom              Charge    Spin density          S         P         D         F
 ----              ------    ------------       ------    ------    ------    ------
 1 N              -0.0000                       2.0000    3.0000    0.0000    0.0000

 Populations of individual BAS functions
 ----------------------------------------
 1 N            0.0003  0.9089  1.0908  0.4917  0.4917  0.4917  0.5083  0.5083  0.5083  0.0000
                0.0000  0.0000  0.0000  0.0000  0.0000

 Gross Charges per Atom (Z minus electrons)
 ==========================================
            -0.0000
 Net Total: -0.00000000



 =======================================================================
 Electrostatic potential at the Nuclei due to electrons and other nuclei
 =======================================================================
  
         Atom                  Potential
         ----                  ---------
     1)   N                  18.21786911
 
 
 ========================
 No memory problems found
 ========================
 
 Maximum number of active allocate calls:         376
 
 *******************************************************************************

                             A D F   E X I T
 NORMAL TERMINATION



 =================
 Timing Statistics
 =================
  
 Total Used :                     CPU=        0.33      System=        0.01     Elapsed=        0.35

 Calls  Section                     ( Mean, Percentage )
 ---------------------------------------------------------------------------------------------------
     3  ><      ................      0.00    0.10             0.00    0.02             0.00    0.14
     1  INIT    ................      0.01    3.07             0.00   32.27             0.02    4.33
     1  GEOMET  ................      0.00    1.34             0.00    1.36             0.00    1.37
     1  INPUTA  ................      0.00    0.27             0.00    0.00             0.00    0.34
     1  MAINSY  ................      0.01    1.54             0.00    0.11             0.00    1.37
     1  SYMFIT  ................      0.00    0.00             0.00    0.00             0.00    0.06
     1  CORORT  ................      0.00    0.00             0.00    0.00             0.00    0.11
     1  SYMORB  ................      0.00    0.26             0.00    0.00             0.00    0.14
     1  CLSMAT  ................      0.00    0.49             0.00    0.00             0.00    0.58
     1  ORTHON  ................      0.00    0.31             0.00    0.16             0.00    0.26
     1  GENPT   ................      0.01    2.39             0.00    0.47             0.01    2.21
     1  PTBAS   ................      0.00    0.30             0.00    0.00             0.00    0.41
    11  FOCKY   ................      0.02   77.67             0.00    1.42             0.02   74.63
    11  FOCKTR  ................      0.00    1.77             0.00    0.02             0.00    1.68
    11  SDIIS   ................      0.00    2.45             0.00    0.04             0.00    2.36
     1  COREPS  ................      0.01    3.86             0.00   32.43             0.02    4.86
     1  POPAN   ................      0.00    0.00             0.00   31.02             0.00    0.61
     1  DEBYE   ................      0.00    0.00             0.00    0.00             0.00    0.08
     1  EXIT PROCEDURE .........      0.01    4.18             0.00    0.68             0.02    4.46


 Currently Open Files (EXIT00)
 ====================

 Unit    Access Format  Status   Type       Ident (file)
 -------------------------------------------------------
   3      SEQ    FORM   TRANSP  NORMAL      LOGFILE
                                          ( logfile )


 Buffered I/O statistics
 =======================
 Memory available:                     67108864
 Number of records fitting in memory:     16131
 Input :   0.6% of                         2388  *4k bytes
 Output:  11.4% of                         1376  *4k bytes
 Records from serial files evicted:           0
                    others evicted:           0
 Hash table lookups:      10508 with          0 conflicts (  0.00%)

 ***************************************************************************************************
 (LOGFILE)
 <Feb28-2017> <12:33:39>  ADF 2016  RunTime: Feb28-2017 12:33:39  Nodes: 1  Procs: 1
 <Feb28-2017> <12:33:39>  Hydrogen (DZP)
 <Feb28-2017> <12:33:39>  RunType   : CREATE
 <Feb28-2017> <12:33:39>  Net Charge: 0 (Nuclei minus Electrons)
 <Feb28-2017> <12:33:39>  Symmetry  : ATOM
  Coordinates
    Atom         X           Y           Z   (Angstrom)
    1.H         0.000000    0.000000    0.000000
 <Feb28-2017> <12:33:39>  >>>> CORORT
 <Feb28-2017> <12:33:39>  >>>> CLSMAT
 <Feb28-2017> <12:33:39>  >>>> ORTHON
 <Feb28-2017> <12:33:39>  >>>> GENPT
 <Feb28-2017> <12:33:39>  Block Length=  64
 <Feb28-2017> <12:33:39>  >>>> PTBAS
 <Feb28-2017> <12:33:39>  >>>> CYCLE
 <Feb28-2017> <12:33:39>              |Error|         MaxErr       Wt(A-DIIS)
 <Feb28-2017> <12:33:39>      1      0.00000000      0.00000000
 <Feb28-2017> <12:33:39>      2      0.04821042      0.04821042
 <Feb28-2017> <12:33:39>      3      0.00844396      0.00844396    100.0
 <Feb28-2017> <12:33:39>      4      0.00142332      0.00142332      0.4
 <Feb28-2017> <12:33:39>      5      0.00000254      0.00000254      0.0
 <Feb28-2017> <12:33:40>      6      0.00000000      0.00000000      0.0
 <Feb28-2017> <12:33:40>  SCF converged
 <Feb28-2017> <12:33:40>      7      0.00000000      0.00000000      0.0
 <Feb28-2017> <12:33:40>   Solutions with partially occupied orbitals may not be
 <Feb28-2017> <12:33:40>   lowest in energy. You might consider lowering the
 <Feb28-2017> <12:33:40>   symmetry in the input and explicitly specifying integer
 <Feb28-2017> <12:33:40>   occupations. In that case always check that you obtain
 <Feb28-2017> <12:33:40>   an aufbau solution.
 <Feb28-2017> <12:33:40>  >>>> POPAN
 <Feb28-2017> <12:33:40>  >>>> DEBYE
 <Feb28-2017> <12:33:40>  NORMAL TERMINATION
 <Feb28-2017> <12:33:40>  END
 <Feb28-2017> <12:33:40>  ADF 2016  RunTime: Feb28-2017 12:33:40  Nodes: 1  Procs: 1
 <Feb28-2017> <12:33:40>  Nitrogen (DZP, 1s frozen)
 <Feb28-2017> <12:33:40>  RunType   : CREATE
 <Feb28-2017> <12:33:40>  Net Charge: 0 (Nuclei minus Electrons)
 <Feb28-2017> <12:33:40>  Symmetry  : ATOM
  Coordinates
    Atom         X           Y           Z   (Angstrom)
    1.N         0.000000    0.000000    0.000000
 <Feb28-2017> <12:33:40>  >>>> CORORT
 <Feb28-2017> <12:33:40>  >>>> CLSMAT
 <Feb28-2017> <12:33:40>  >>>> ORTHON
 <Feb28-2017> <12:33:40>  >>>> GENPT
 <Feb28-2017> <12:33:40>  Block Length=  68
 <Feb28-2017> <12:33:40>  >>>> PTBAS
 <Feb28-2017> <12:33:40>  >>>> CYCLE
 <Feb28-2017> <12:33:40>              |Error|         MaxErr       Wt(A-DIIS)
 <Feb28-2017> <12:33:40>      1      0.00000000      0.00000000
 <Feb28-2017> <12:33:40>      2      1.55352192      1.26545951
 <Feb28-2017> <12:33:40>      3      1.35596060      1.04517403    100.0
 <Feb28-2017> <12:33:40>      4      0.32649935      0.23288809    100.0
 <Feb28-2017> <12:33:40>      5      0.32072222      0.23021072    100.0
 <Feb28-2017> <12:33:40>      6      0.29637899      0.21257226    100.0
 <Feb28-2017> <12:33:40>      7      0.00904537      0.00653757      5.6
 <Feb28-2017> <12:33:40>      8      0.00038970      0.00027675      0.0
 <Feb28-2017> <12:33:40>      9      0.00000358      0.00000254      0.0
 <Feb28-2017> <12:33:40>     10      0.00000000      0.00000000      0.0
 <Feb28-2017> <12:33:40>  SCF converged
 <Feb28-2017> <12:33:40>     11      0.00000000      0.00000000      0.0
 <Feb28-2017> <12:33:40>   Solutions with partially occupied orbitals may not be
 <Feb28-2017> <12:33:40>   lowest in energy. You might consider lowering the
 <Feb28-2017> <12:33:40>   symmetry in the input and explicitly specifying integer
 <Feb28-2017> <12:33:40>   occupations. In that case always check that you obtain
 <Feb28-2017> <12:33:40>   an aufbau solution.
 <Feb28-2017> <12:33:40>  >>>> POPAN
 <Feb28-2017> <12:33:40>  >>>> DEBYE
 <Feb28-2017> <12:33:40>  NORMAL TERMINATION
 <Feb28-2017> <12:33:40>  END

Create C   file=/home/lars/adf2016.101/atomicdata/DZP/C.1s
xc
  lda
End
End Input

 *******************************************************************************
 *                                                                             *
 *  -------------------------------------                                      *
 *   Amsterdam Density Functional  (ADF)         2016                          *
 *  -------------------------------------                                      *
 *                                               r51252 2016-03-08             *
 *                                                                             *
 *                                                                             *
 *                              =================                              *
 *                              |               |                              *
 *                              |     A D F     |                              *
 *                              |               |                              *
 *                              =================                              *
 *                                                                             *
 *                                                                             *
 *   Online information and documentation:  http://www.scm.com                 *
 *   E-mail:  support@scm.com   info@scm.com                                   *
 *                                                                             *
 *   Scientific publications using ADF results must be properly referenced     *
 *   See the User Manuals (or the web site) for recommended citations          *
 *   The terms and conditions of the End User License Agreement apply to       *
 *   the use of ADF, http://www.scm.com/Sales/LicAgreement.html                *
 *                                                                             *
 **********************  x86_64_linux_intel / intelmpi  ************************
 
 Licensed to: Dr. Rob van Nieuwpoort / eScience Center / Amsterdam / NL
 SCM User ID: u17149
  
 ADF 2016  RunTime: Feb28-2017 12:33:40  Nodes: 1  Procs: 1

 Temporary files are created in /tmp/kid_0.1tYlRX

 Carbon (DZP, 1s frozen)



 ===========================
 A T T A C H E D   F I L E S
 ===========================
  
 CREATE - Data File:    /home/lars/adf2016.101/atomicdata/DZP/C.1s
                        Carbon (DZP, 1s frozen)



 ===============================
 M O D E L   P A R A M E T E R S
 ===============================
  
 DENSITY FUNCTIONAL POTENTIAL (scf)
    LDA:                               VWN                                      
    Gradient Corrections:              ---                                      

 SPIN  (restricted / unrestr.)
    Molecule:                          Restricted                               

 OTHER ASPECTS
    Relativistic Corrections:          ---                                      

    Nuclear Charge Density Model:      Point Charge Nuclei                                                                                                                                                                                     
    Core Treatment:                    Frozen Orbital(s)                        

    Hyperfine or Zeeman Interaction:   ---                                      



 =====================================
 S Y M M E T R Y ,   E L E C T R O N S
 =====================================
  
 Symmetry: ATOM

 Irreducible Representations, including subspecies
 -------------------------------------------------
 S
 P:x  P:y  P:z
 D:z2  D:x2-y2  D:xy  D:xz  D:yz
 F:z3  F:z  F:xyz  F:z2x  F:z2y  F:x  F:y


 Configuration of Valence Electrons
 ==================================

          Occupation Numbers
          -------------------------------------------------
 S        2
 P        2
 D        0
 F        0
          -------------------------------------------------

 Total:   4

 Net Charge: 0 (Nuclei minus Electrons)

 Preset values for MO occupations will be applied through SCF cycle no. 1000000
 Thereafter, the program will assign electrons to MOs that are spatially
 similar to the occupied MOs in a "reference" cycle ("KeepOrbitals").
 The reference cycle is always the PREVIOUS cycle: it will evolve with
 the SCF procedure.



 ================================
 (Slater-type)  F U N C T I O N S  ***  (Basis and Fit)  ***
 ================================
  

 Atom Type    1  (C)
 ==============

 Valence Basis Sets:   6
 -----------------------
   1 S    5.400000
   2 S    1.240000
   2 S    1.980000
   2 P    0.960000
   2 P    2.200000
   3 D    2.200000

 Frozen Core Shells
 ------------------
    S:  1


 BAS: List of all Elementary Cartesian Basis Functions
 =====================================================

 The numbering in the list below (to the right of the function characteristics) is referred
 to in print-outs of MO eigenvectors and Mulliken populations in the BAS representation
 (as contrasted to the SFO representation).

 Notes:
 1. The functions are characterized by a polynomial prefactor (powers of x,y,z and r) and
    an exponential decay factor alpha.
 2. Since the basis sets are specific for an atom TYPE, the individual functions occur on
    all atoms of that type.
 3. The word 'Core' in the left margin signals that it is a Core Function (CF) : not a
    degree of freedom in the valence set, but only used to ensure orthogonalization of
    the other valence basis functions on the frozen Core Orbitals.


 (power of) X  Y  Z  R     Alpha  on Atom
            ==========     =====     ==========

 C                                    1
                                  ---------------------------------------------------------------------------
    Core    0  0  0  0     5.400      1
            0  0  0  1     1.240      2
            0  0  0  1     1.980      3
            1  0  0  0     0.960      4
            0  1  0  0     0.960      5
            0  0  1  0     0.960      6
            1  0  0  0     2.200      7
            0  1  0  0     2.200      8
            0  0  1  0     2.200      9
            2  0  0  0     2.200     10
            1  1  0  0     2.200     11
            1  0  1  0     2.200     12
            0  2  0  0     2.200     13
            0  1  1  0     2.200     14
            0  0  2  0     2.200     15

 Total number of charge fitting functions (nprimf)        82
 Total number of Cartesian basis functions (naos)         15
 Total number of Cartesian core functions  (ncos)          1



 BAS: List of all Elementary Cartesian Basis Functions
 =====================================================

 The numbering in the list below (to the right of the function characteristics) is referred
 to in print-outs of MO eigenvectors and Mulliken populations in the BAS representation
 (as contrasted to the SFO representation).

 Notes:
 1. The functions are characterized by a polynomial prefactor (powers of x,y,z and r) and
    an exponential decay factor alpha.
 2. Since the basis sets are specific for an atom TYPE, the individual functions occur on
    all atoms of that type.
 3. The word 'Core' in the left margin signals that it is a Core Function (CF) : not a
    degree of freedom in the valence set, but only used to ensure orthogonalization of
    the other valence basis functions on the frozen Core Orbitals.


 (power of) X  Y  Z  R     Alpha  on Atom
            ==========     =====     ==========

 C                                    1
                                  ---------------------------------------------------------------------------
    Core    0  0  0  0     5.400      1
            0  0  0  1     1.240      2
            0  0  0  1     1.980      3
            1  0  0  0     0.960      4
            0  1  0  0     0.960      5
            0  0  1  0     0.960      6
            1  0  0  0     2.200      7
            0  1  0  0     2.200      8
            0  0  1  0     2.200      9
            2  0  0  0     2.200     10
            1  1  0  0     2.200     11
            1  0  1  0     2.200     12
            0  2  0  0     2.200     13
            0  1  1  0     2.200     14
            0  0  2  0     2.200     15
1
 ***************************************************************************************************



                                              ***********************
                                              *  T E C H N I C A L  *
                                              ***********************
  



 =============================================================
 P A R A L L E L I Z A T I O N  and  V E C T O R I Z A T I O N
 =============================================================
  
 Nr of parallel processes:                                1
 Maximum vector length in NumInt loops:                 128

 IO buffersize (Mb):                                     64.000000



 =====================
 S C F   U P D A T E S
 =====================
  
 Max. nr. of cycles:                               300
 Convergence criterion:                              0.0000000100
   secondary criterion:                              0.0000000100

 Mix parameter (when DIIS does not apply):           0.2000000000
 Special mix parameter for the first cycle:          1.0000000000
 Mixed ADIIS+DIIS will be used
    Max number of expansion vectors:                10
    Pure ADIIS when Max([F,P]) is above              0.1000000000
    Pure DIIS when Max([F,P]) is below               0.0010000000
 Automatic ElectronSmearing (in case of problematic SCF convergence) disabled



 =================
 P R E C I S I O N  ***  (General: NumInt, NeglectFunctionTails, ...)  ***
 =================
  

 NumInt:           Target precision:                12.0000000000
 -------           Initial precision:               10.0000000000
                   Min. precision (optimization):   10.0000000000

 Neglect Functions:          Basis functions:        0.1000000000E-13
 ------------------          Fit functions:          0.1000000000E-13



 ===========================
 L I N E A R   S C A L I N G
 ===========================
  

 Cut-off radii density fit:                        0.1000000000E-97
 Overlap cut-off criterion AO matrix elements:     0.1000000000E-97
 Cut-offs for Coulomb potential and fitted density:0.1000000000E-97
 Cut-off criterion for Coulomb multipole terms:    0.1000000000E-97
 Progressive Convergence parameter:                 0.000000000    
1
 ***************************************************************************************************



                                            ***************************
                                            *  C O M P U T A T I O N  *
                                            ***************************
  

 Number of elements of the density matrix on this node (used, total):       120       120



 ===========================================
 Numerical Integration : Fuzzy Cells (Becke)
 ===========================================
  
 Becke grid quality: VERYGOOD       
  
 Lebedev angular grid order:             min:  13 max:  41
 Nr. of radial points:                   min:  68 max:  68

 Total nr. of points:         68
 Nr. of blocks:                1
 Block length:                68
 Nr. of dummy points:          0


 Test of Precision of the Numerical Integration Grid
 ===================================================

 Integral of the Total Core Density:                   1.99999999985293
 Relative Error:                                      -7.354E-11



 ========================
 Density Fitting (zlmFit)
 ========================
  
 ZlmFit Fit Quality: VERYGOOD       
  
 Max L-expansion:                        min:   0 max:   0
 Nr. of radial interpolation points:     min: 140 max: 140



 =====
 S C F  ***  ScaSCF  ***
 =====
  

 CYCLE    1
 SCF Error: norm([F,P])=      0.000000000000, max([F,P])=      0.000000000000
 orbitals (Q,E):
 ---------------
 S :1...2            ( 2.00    -2.5148)  ( 0.00    -0.9877)
 P :1...2            ( 2.00    -2.2830)  ( 0.00    -0.9530)
 D :1...1            ( 0.00    -0.6053)

 CYCLE    2
 SCF Error: norm([F,P])=      0.961719955154, max([F,P])=      0.852513931246
 orbitals (Q,E):
 ---------------
 S :1...2            ( 2.00    -0.1779)  ( 0.00     0.8274)
 P :1...2            ( 2.00     0.0803)  ( 0.00     0.8515)
 D :1...1            ( 0.00     1.5679)

 CYCLE    3
  SDIIS (wt  0.000):  0.4217  0.5783
 A-DIIS (wt  1.000):  0.2128  0.7872
  DIIS coefficients:  0.2128  0.7872
 SCF Error: norm([F,P])=      0.701225068732, max([F,P])=      0.610675719838
 orbitals (Q,E):
 ---------------
 S :1...2            ( 2.00    -0.6343)  ( 0.00     0.3810)
 P :1...2            ( 2.00    -0.3276)  ( 0.00     0.3365)
 D :1...1            ( 0.00     1.1076)

 CYCLE    4
  SDIIS (wt  0.000):  0.2598  0.7402
 A-DIIS (wt  1.000):  0.0000  1.0000
  DIIS coefficients:  0.0000  1.0000
 SCF Error: norm([F,P])=      0.246462962981, max([F,P])=      0.204838845090
 orbitals (Q,E):
 ---------------
 S :1...2            ( 2.00    -0.4200)  ( 0.00     0.5464)
 P :1...2            ( 2.00    -0.1254)  ( 0.00     0.5194)
 D :1...1            ( 0.00     1.3120)

 CYCLE    5
  SDIIS (wt  0.000):  0.4451  0.5549
 A-DIIS (wt  1.000):  0.3616  0.6384
  DIIS coefficients:  0.3616  0.6384
 SCF Error: norm([F,P])=      0.197669833234, max([F,P])=      0.165829705824
 orbitals (Q,E):
 ---------------
 S :1...2            ( 2.00    -0.5209)  ( 0.00     0.4595)
 P :1...2            ( 2.00    -0.2182)  ( 0.00     0.4207)
 D :1...1            ( 0.00     1.2142)

 CYCLE    6
  SDIIS (wt  0.777):  0.1229  0.8771
 A-DIIS (wt  0.223):  0.0000  1.0000
  DIIS coefficients:  0.0956  0.9044
 SCF Error: norm([F,P])=      0.027705147851, max([F,P])=      0.023033257444
 orbitals (Q,E):
 ---------------
 S :1...2            ( 2.00    -0.5054)  ( 0.00     0.4716)
 P :1...2            ( 2.00    -0.2037)  ( 0.00     0.4342)
 D :1...1            ( 0.00     1.2290)

 CYCLE    7
  SDIIS (wt  0.968):  0.1534  0.8466
 A-DIIS (wt  0.032):  0.0000  1.0000
  DIIS coefficients:  0.1485  0.8515
 SCF Error: norm([F,P])=      0.005020854403, max([F,P])=      0.004188165535
 orbitals (Q,E):
 ---------------
 S :1...2            ( 2.00    -0.5077)  ( 0.00     0.4697)
 P :1...2            ( 2.00    -0.2059)  ( 0.00     0.4320)
 D :1...1            ( 0.00     1.2268)

 CYCLE    8
  SDIIS (wt  1.000):  0.0221  0.9779
  DIIS coefficients:  0.0221  0.9779
 SCF Error: norm([F,P])=      0.000113365801, max([F,P])=      0.000094362082
 orbitals (Q,E):
 ---------------
 S :1...2            ( 2.00    -0.5077)  ( 0.00     0.4697)
 P :1...2            ( 2.00    -0.2058)  ( 0.00     0.4321)
 D :1...1            ( 0.00     1.2269)

 CYCLE    9
  SDIIS (wt  1.000):  0.0020  0.9980
  DIIS coefficients:  0.0020  0.9980
 SCF Error: norm([F,P])=      0.000000226796, max([F,P])=      0.000000189096
 orbitals (Q,E):
 ---------------
 S :1...2            ( 2.00    -0.5077)  ( 0.00     0.4697)
 P :1...2            ( 2.00    -0.2058)  ( 0.00     0.4321)
 D :1...1            ( 0.00     1.2269)

 CYCLE   10
  SDIIS (wt  1.000): -0.0016  1.0016
  DIIS coefficients: -0.0016  1.0016
 SCF Error: norm([F,P])=      0.000000000357, max([F,P])=      0.000000000297
 orbitals (Q,E):
 ---------------
 S :1...2            ( 2.00    -0.5077)  ( 0.00     0.4697)
 P :1...2            ( 2.00    -0.2058)  ( 0.00     0.4321)
 D :1...1            ( 0.00     1.2269)

 SCF CONVERGED

 CYCLE   11
1
 ***************************************************************************************************



                                                *******************
                                                *  R E S U L T S  *
                                                *******************
  
 *** Setting up for NEW gradients in Focky
 *** Using FIT density in Focky

 Orbital Energies, per Irrep and Spin:
 ======================================
                        Occup              E (au)              E (eV)       Diff (eV) with prev. cycle
                        -----      --------------------        ------       --------------------------
 S
               1        2.000     -0.50766299902100E+00       -13.814               1.23E-11
               2        0.000      0.46973187265993E+00        12.782
 P
               1        2.000     -0.20581338371554E+00        -5.600               1.17E-11
               2        0.000      0.43205084062243E+00        11.757
 D
               1        0.000      0.12268650779389E+01        33.385


 Partially Occupied:
               1 P                -0.20581338371554E+00
  
 HOMO :        1 S                -0.50766299902100E+00
 LUMO :        2 P                 0.43205084062243E+00
  


 Orbital Energies, all Irreps
 ========================================

 Irrep        no.  (spin)   Occup              E (au)                E (eV)
 ---------------------------------------------------------------------------
 S             1             2.00       -0.50766299902100E+00       -13.8142
 P             1             2.00       -0.20581338371554E+00        -5.6005
 P             2             0.00        0.43205084062243E+00        11.7567
 S             2             0.00        0.46973187265993E+00        12.7821
 D             1             0.00        0.12268650779389E+01        33.3847


 Orbital Energies of the Core Orbitals:
 ======================================
 (Note that the atoms are grouped by atomtype, see the labels, and may hence NOT be in input order)

 AtomType  Orbital  Atom                   E (au)                        E (eV)
 --------  -------  ----           --------------------        ----------------
 C           1S        1          -0.99531877336699E+01                -270.840



 =======================================
 M U L L I K E N   P O P U L A T I O N S
 =======================================
  
 The survey below gives for each atom:
 a) the total charge (Z minus electrons)
 b) the net spin polarization (nr of electrons spin-A minus spin-B)
 c) for each spin the atomic electron valence density (integrated) per L-value.

 Atom              Charge    Spin density          S         P         D         F
 ----              ------    ------------       ------    ------    ------    ------
 1 C              -0.0000                       2.0000    2.0000    0.0000    0.0000

 Populations of individual BAS functions
 ----------------------------------------
 1 C            0.0003  0.9069  1.0928  0.3608  0.3608  0.3608  0.3058  0.3058  0.3058  0.0000
                0.0000  0.0000  0.0000  0.0000  0.0000

 Gross Charges per Atom (Z minus electrons)
 ==========================================
            -0.0000
 Net Total: -0.00000000



 =======================================================================
 Electrostatic potential at the Nuclei due to electrons and other nuclei
 =======================================================================
  
         Atom                  Potential
         ----                  ---------
     1)   C                  14.60983159
 
 
 ========================
 No memory problems found
 ========================
 
 Maximum number of active allocate calls:         376
 
 *******************************************************************************

                             A D F   E X I T
 NORMAL TERMINATION



 =================
 Timing Statistics
 =================
  
 Total Used :                     CPU=        0.30      System=        0.02     Elapsed=        0.33

 Calls  Section                     ( Mean, Percentage )
 ---------------------------------------------------------------------------------------------------
     3  ><      ................      0.00    0.01             0.00    0.00             0.00    0.12
     1  INIT    ................      0.01    2.99             0.00   19.48             0.01    4.45
     1  GEOMET  ................      0.00    0.61             0.00   13.43             0.00    1.42
     1  INPUTA  ................      0.00    0.00             0.00    3.65             0.00    0.34
     1  MAINSY  ................      0.00    1.61             0.00    0.00             0.00    1.47
     1  SYMFIT  ................      0.00    0.00             0.00    0.00             0.00    0.06
     1  CORORT  ................      0.00    0.00             0.00    0.00             0.00    0.10
     1  SYMORB  ................      0.00    0.26             0.00    0.00             0.00    0.15
     1  CLSMAT  ................      0.00    0.51             0.00    0.00             0.00    0.61
     1  ORTHON  ................      0.00    0.38             0.00    0.00             0.00    0.26
     1  GENPT   ................      0.01    2.71             0.00    0.00             0.01    2.40
     1  PTBAS   ................      0.00    0.27             0.00    0.00             0.00    0.42
    11  FOCKY   ................      0.02   75.88             0.00   32.72             0.02   74.07
    11  FOCKTR  ................      0.00    1.62             0.00   15.49             0.00    1.72
    11  SDIIS   ................      0.00    2.47             0.00   15.24             0.00    2.49
     1  COREPS  ................      0.02    5.61             0.00    0.00             0.02    5.11
     1  POPAN   ................      0.00    0.55             0.00    0.00             0.00    0.54
     1  DEBYE   ................      0.00    0.07             0.00    0.00             0.00    0.09
     1  EXIT PROCEDURE .........      0.01    4.45             0.00    0.00             0.01    4.19


 Currently Open Files (EXIT00)
 ====================

 Unit    Access Format  Status   Type       Ident (file)
 -------------------------------------------------------
   3      SEQ    FORM   TRANSP  NORMAL      LOGFILE
                                          ( logfile )


 Buffered I/O statistics
 =======================
 Memory available:                     67108864
 Number of records fitting in memory:     16131
 Input :   0.6% of                         2384  *4k bytes
 Output:  11.5% of                         1369  *4k bytes
 Records from serial files evicted:           0
                    others evicted:           0
 Hash table lookups:      10473 with          0 conflicts (  0.00%)

 ***************************************************************************************************
 (LOGFILE)
 <Feb28-2017> <12:33:39>  ADF 2016  RunTime: Feb28-2017 12:33:39  Nodes: 1  Procs: 1
 <Feb28-2017> <12:33:39>  Hydrogen (DZP)
 <Feb28-2017> <12:33:39>  RunType   : CREATE
 <Feb28-2017> <12:33:39>  Net Charge: 0 (Nuclei minus Electrons)
 <Feb28-2017> <12:33:39>  Symmetry  : ATOM
  Coordinates
    Atom         X           Y           Z   (Angstrom)
    1.H         0.000000    0.000000    0.000000
 <Feb28-2017> <12:33:39>  >>>> CORORT
 <Feb28-2017> <12:33:39>  >>>> CLSMAT
 <Feb28-2017> <12:33:39>  >>>> ORTHON
 <Feb28-2017> <12:33:39>  >>>> GENPT
 <Feb28-2017> <12:33:39>  Block Length=  64
 <Feb28-2017> <12:33:39>  >>>> PTBAS
 <Feb28-2017> <12:33:39>  >>>> CYCLE
 <Feb28-2017> <12:33:39>              |Error|         MaxErr       Wt(A-DIIS)
 <Feb28-2017> <12:33:39>      1      0.00000000      0.00000000
 <Feb28-2017> <12:33:39>      2      0.04821042      0.04821042
 <Feb28-2017> <12:33:39>      3      0.00844396      0.00844396    100.0
 <Feb28-2017> <12:33:39>      4      0.00142332      0.00142332      0.4
 <Feb28-2017> <12:33:39>      5      0.00000254      0.00000254      0.0
 <Feb28-2017> <12:33:40>      6      0.00000000      0.00000000      0.0
 <Feb28-2017> <12:33:40>  SCF converged
 <Feb28-2017> <12:33:40>      7      0.00000000      0.00000000      0.0
 <Feb28-2017> <12:33:40>   Solutions with partially occupied orbitals may not be
 <Feb28-2017> <12:33:40>   lowest in energy. You might consider lowering the
 <Feb28-2017> <12:33:40>   symmetry in the input and explicitly specifying integer
 <Feb28-2017> <12:33:40>   occupations. In that case always check that you obtain
 <Feb28-2017> <12:33:40>   an aufbau solution.
 <Feb28-2017> <12:33:40>  >>>> POPAN
 <Feb28-2017> <12:33:40>  >>>> DEBYE
 <Feb28-2017> <12:33:40>  NORMAL TERMINATION
 <Feb28-2017> <12:33:40>  END
 <Feb28-2017> <12:33:40>  ADF 2016  RunTime: Feb28-2017 12:33:40  Nodes: 1  Procs: 1
 <Feb28-2017> <12:33:40>  Nitrogen (DZP, 1s frozen)
 <Feb28-2017> <12:33:40>  RunType   : CREATE
 <Feb28-2017> <12:33:40>  Net Charge: 0 (Nuclei minus Electrons)
 <Feb28-2017> <12:33:40>  Symmetry  : ATOM
  Coordinates
    Atom         X           Y           Z   (Angstrom)
    1.N         0.000000    0.000000    0.000000
 <Feb28-2017> <12:33:40>  >>>> CORORT
 <Feb28-2017> <12:33:40>  >>>> CLSMAT
 <Feb28-2017> <12:33:40>  >>>> ORTHON
 <Feb28-2017> <12:33:40>  >>>> GENPT
 <Feb28-2017> <12:33:40>  Block Length=  68
 <Feb28-2017> <12:33:40>  >>>> PTBAS
 <Feb28-2017> <12:33:40>  >>>> CYCLE
 <Feb28-2017> <12:33:40>              |Error|         MaxErr       Wt(A-DIIS)
 <Feb28-2017> <12:33:40>      1      0.00000000      0.00000000
 <Feb28-2017> <12:33:40>      2      1.55352192      1.26545951
 <Feb28-2017> <12:33:40>      3      1.35596060      1.04517403    100.0
 <Feb28-2017> <12:33:40>      4      0.32649935      0.23288809    100.0
 <Feb28-2017> <12:33:40>      5      0.32072222      0.23021072    100.0
 <Feb28-2017> <12:33:40>      6      0.29637899      0.21257226    100.0
 <Feb28-2017> <12:33:40>      7      0.00904537      0.00653757      5.6
 <Feb28-2017> <12:33:40>      8      0.00038970      0.00027675      0.0
 <Feb28-2017> <12:33:40>      9      0.00000358      0.00000254      0.0
 <Feb28-2017> <12:33:40>     10      0.00000000      0.00000000      0.0
 <Feb28-2017> <12:33:40>  SCF converged
 <Feb28-2017> <12:33:40>     11      0.00000000      0.00000000      0.0
 <Feb28-2017> <12:33:40>   Solutions with partially occupied orbitals may not be
 <Feb28-2017> <12:33:40>   lowest in energy. You might consider lowering the
 <Feb28-2017> <12:33:40>   symmetry in the input and explicitly specifying integer
 <Feb28-2017> <12:33:40>   occupations. In that case always check that you obtain
 <Feb28-2017> <12:33:40>   an aufbau solution.
 <Feb28-2017> <12:33:40>  >>>> POPAN
 <Feb28-2017> <12:33:40>  >>>> DEBYE
 <Feb28-2017> <12:33:40>  NORMAL TERMINATION
 <Feb28-2017> <12:33:40>  END
 <Feb28-2017> <12:33:40>  ADF 2016  RunTime: Feb28-2017 12:33:40  Nodes: 1  Procs: 1
 <Feb28-2017> <12:33:40>  Carbon (DZP, 1s frozen)
 <Feb28-2017> <12:33:40>  RunType   : CREATE
 <Feb28-2017> <12:33:40>  Net Charge: 0 (Nuclei minus Electrons)
 <Feb28-2017> <12:33:40>  Symmetry  : ATOM
  Coordinates
    Atom         X           Y           Z   (Angstrom)
    1.C         0.000000    0.000000    0.000000
 <Feb28-2017> <12:33:40>  >>>> CORORT
 <Feb28-2017> <12:33:40>  >>>> CLSMAT
 <Feb28-2017> <12:33:40>  >>>> ORTHON
 <Feb28-2017> <12:33:40>  >>>> GENPT
 <Feb28-2017> <12:33:40>  Block Length=  68
 <Feb28-2017> <12:33:40>  >>>> PTBAS
 <Feb28-2017> <12:33:40>  >>>> CYCLE
 <Feb28-2017> <12:33:40>              |Error|         MaxErr       Wt(A-DIIS)
 <Feb28-2017> <12:33:40>      1      0.00000000      0.00000000
 <Feb28-2017> <12:33:40>      2      0.96171996      0.85251393
 <Feb28-2017> <12:33:40>      3      0.70122507      0.61067572    100.0
 <Feb28-2017> <12:33:40>      4      0.24646296      0.20483885    100.0
 <Feb28-2017> <12:33:40>      5      0.19766983      0.16582971    100.0
 <Feb28-2017> <12:33:40>      6      0.02770515      0.02303326     22.3
 <Feb28-2017> <12:33:40>      7      0.00502085      0.00418817      3.2
 <Feb28-2017> <12:33:40>      8      0.00011337      0.00009436      0.0
 <Feb28-2017> <12:33:40>      9      0.00000023      0.00000019      0.0
 <Feb28-2017> <12:33:40>     10      0.00000000      0.00000000      0.0
 <Feb28-2017> <12:33:40>  SCF converged
 <Feb28-2017> <12:33:40>     11      0.00000000      0.00000000      0.0
 <Feb28-2017> <12:33:40>   Solutions with partially occupied orbitals may not be
 <Feb28-2017> <12:33:40>   lowest in energy. You might consider lowering the
 <Feb28-2017> <12:33:40>   symmetry in the input and explicitly specifying integer
 <Feb28-2017> <12:33:40>   occupations. In that case always check that you obtain
 <Feb28-2017> <12:33:40>   an aufbau solution.
 <Feb28-2017> <12:33:40>  >>>> POPAN
 <Feb28-2017> <12:33:40>  >>>> DEBYE
 <Feb28-2017> <12:33:40>  NORMAL TERMINATION
 <Feb28-2017> <12:33:40>  END


 Parallel Execution: Process Information
 ==============================================================================
 Rank   Node Name                              NodeID   MyNodeRank  NodeMaster
    0   Ubuntu-Lars                               0          0          0
    1   Ubuntu-Lars                               0          1         -1
 ==============================================================================



atoms
      1         C      2.366998      0.579794      0.000000
      2         C      1.660642      1.834189     -0.000000
      3         N      1.089031      2.847969     -0.000000
      4         H      2.100157      0.010030      0.887206
      5         H      2.100157      0.010030     -0.887206
      6         H      3.439065      0.764079      0.000000
end

integration
  accint 4.0
end

scf
  converge 1e-06
  iterations 100
end

xc
  lda
end

Fragments
H t21.H
N t21.N
C t21.C
End
end input

 *******************************************************************************
 *                                                                             *
 *  -------------------------------------                                      *
 *   Amsterdam Density Functional  (ADF)         2016                          *
 *  -------------------------------------                                      *
 *                                               r51252 2016-03-08             *
 *                                                                             *
 *                                                                             *
 *                              =================                              *
 *                              |               |                              *
 *                              |     A D F     |                              *
 *                              |               |                              *
 *                              =================                              *
 *                                                                             *
 *                                                                             *
 *   Online information and documentation:  http://www.scm.com                 *
 *   E-mail:  support@scm.com   info@scm.com                                   *
 *                                                                             *
 *   Scientific publications using ADF results must be properly referenced     *
 *   See the User Manuals (or the web site) for recommended citations          *
 *   The terms and conditions of the End User License Agreement apply to       *
 *   the use of ADF, http://www.scm.com/Sales/LicAgreement.html                *
 *                                                                             *
 **********************  x86_64_linux_intel / intelmpi  ************************
 
 Licensed to: Dr. Rob van Nieuwpoort / eScience Center / Amsterdam / NL
 SCM User ID: u17149
  
 ADF 2016  RunTime: Feb28-2017 12:33:40  Nodes: 1  Procs: 2

 Temporary files are created in /tmp/kid_0.jf11oF


Communication costs MPI_COMM_WORLD:      0.507 usec per message,   0.0034 usec per 8-byte item
Communication costs for intra-node:      0.525 usec per message,   0.0036 usec per 8-byte item

 *** (NO TITLE) ***



 ===========================
 A T T A C H E D   F I L E S
 ===========================
  



 ===============================
 M O D E L   P A R A M E T E R S
 ===============================
  
 DENSITY FUNCTIONAL POTENTIAL (scf)
    LDA:                               VWN                                      
    Gradient Corrections:              ---                                      

 SPIN  (restricted / unrestr.)
    Molecule:                          Restricted                               
    Fragments:                         Restricted                               

 OTHER ASPECTS
    Relativistic Corrections:          ---                                      

[...]
                                    6.07%     2 P:z            11.757  0.00     2 C
                                    3.58%     1 P:z            -5.600  0.67     1 C
                                    2.14%     1 S             -13.814  2.00     2 C
                                    1.18%     1 P:z            -5.600  0.67     2 C
      -8.498  2.00     2 E1:1      51.54%     1 P:x            -7.394  1.00     3 N
                                   33.35%     1 P:x            -5.600  0.67     2 C
                                    8.36%     1 S              -6.379  1.00     4 H
                                    3.42%     1 P:x            -5.600  0.67     1 C
                                    1.26%     1 D:xz           33.385  0.00     2 C
      -8.498  2.00     2 E1:2      51.54%     1 P:y            -7.394  1.00     3 N
                                   33.35%     1 P:y            -5.600  0.67     2 C
                                    8.36%     1 S              -6.379  1.00     4 H
                                    3.42%     1 P:y            -5.600  0.67     1 C
                                    1.26%     1 D:yz           33.385  0.00     2 C
      -0.688  0.00     3 E1:1      41.02%     1 P:x            -7.394  1.00     3 N
                                   40.46%     1 P:x            -5.600  0.67     2 C
                                   22.46%     1 S              -6.379  1.00     4 H
                                   -4.61%     2 S              10.964  0.00     4 H
                                   -2.59%     2 P:x            15.547  0.00     3 N
                                   -2.35%     2 P:x            11.757  0.00     2 C
                                    2.28%     1 P:x            -5.600  0.67     1 C
                                    1.70%     1 D:xz           33.385  0.00     2 C
                                    1.69%     1 D:xz           33.385  0.00     1 C
                                   -1.05%     1 P:y            10.945  0.00     4 H
                                    1.01%     1 P:z            10.945  0.00     4 H
      -0.688  0.00     3 E1:2      41.02%     1 P:y            -7.394  1.00     3 N
                                   40.46%     1 P:y            -5.600  0.67     2 C
                                   22.46%     1 S              -6.379  1.00     4 H
                                   -4.61%     2 S              10.964  0.00     4 H
                                   -2.59%     2 P:y            15.547  0.00     3 N
                                   -2.35%     2 P:y            11.757  0.00     2 C
                                    2.28%     1 P:y            -5.600  0.67     1 C
                                    1.70%     1 D:yz           33.385  0.00     2 C
                                    1.69%     1 D:yz           33.385  0.00     1 C
                                   -1.05%     1 P:x            10.945  0.00     4 H
                                    1.01%     1 P:z            10.945  0.00     4 H
      -0.179  0.00     5 A1        84.52%     1 S              -6.379  1.00     4 H
                                   43.22%     2 S              10.964  0.00     4 H
                                  -28.03%     2 S              12.782  0.00     1 C
                                    6.45%     1 S             -13.814  2.00     1 C
                                   -4.53%     1 P:x            10.945  0.00     4 H
                                    2.36%     1 S             -13.814  2.00     2 C
                                   -2.25%     2 P:z            11.757  0.00     1 C
                                   -1.85%     2 S              18.807  0.00     3 N
                                    1.70%     2 S              12.782  0.00     2 C
                                   -1.12%     1 P:z            -5.600  0.67     2 C
                                   -1.10%     2 P:z            11.757  0.00     2 C
                                    1.07%     1 P:z            -5.600  0.67     1 C
       2.608  0.00     4 E1:1      76.63%     1 S              -6.379  1.00     4 H
                                  -28.66%     2 P:x            11.757  0.00     1 C
                                   22.30%     1 P:x            -5.600  0.67     1 C
                                   12.87%     1 P:x            -5.600  0.67     2 C
                                   12.63%     2 S              10.964  0.00     4 H
                                    4.45%     1 P:x            -7.394  1.00     3 N
                                    1.28%     2 P:x            11.757  0.00     2 C
                                   -1.07%     2 P:x            15.547  0.00     3 N
       2.608  0.00     4 E1:2      76.63%     1 S              -6.379  1.00     4 H
                                  -28.66%     2 P:y            11.757  0.00     1 C
                                   22.30%     1 P:y            -5.600  0.67     1 C
                                   12.87%     1 P:y            -5.600  0.67     2 C
                                   12.63%     2 S              10.964  0.00     4 H
                                    4.45%     1 P:y            -7.394  1.00     3 N
                                    1.28%     2 P:y            11.757  0.00     2 C
                                   -1.07%     2 P:y            15.547  0.00     3 N
       3.565  0.00     6 A1        49.06%     1 S             -13.814  2.00     2 C
                                   35.53%     1 P:z            -5.600  0.67     1 C
                                   11.48%     1 P:z            10.945  0.00     4 H
                                   -9.93%     2 S              12.782  0.00     2 C
                                    6.13%     2 P:z            11.757  0.00     2 C
                                   -5.19%     2 P:z            11.757  0.00     1 C
                                    5.03%     1 P:z            -7.394  1.00     3 N
                                    4.99%     1 P:x            10.945  0.00     4 H
                                   -4.61%     2 S              18.807  0.00     3 N
                                    3.93%     1 D:z2           33.385  0.00     1 C
                                    3.81%     1 S              -6.379  1.00     4 H
                                   -2.64%     2 P:z            15.547  0.00     3 N
                                    1.80%     1 S             -13.814  2.00     1 C
                                    1.20%     1 D:z2           33.385  0.00     2 C



 =======================================================================
 Electrostatic potential at the Nuclei due to electrons and other nuclei
 =======================================================================
  
         Atom                  Potential
         ----                  ---------
     1)   C                  14.67201454
     2)   C                  14.69645301
     3)   N                  18.33315031
     4)   H                   1.02579040
     5)   H                   1.02606204
     6)   H                   1.02579040
 
 
 ========================
 No memory problems found
 ========================
 
 Maximum number of active allocate calls:        1027
 
 *******************************************************************************

                             A D F   E X I T
 NORMAL TERMINATION



 =================
 Timing Statistics
 =================
  
 Total Used :                     CPU=        1.46      System=        0.22     Elapsed=        1.72

 Calls  Section                     ( Mean, Percentage )
 ---------------------------------------------------------------------------------------------------
     3  ><      ................      0.00    0.00             0.00    0.00             0.00    0.05
     1  INIT    ................      0.32   21.75             0.11   49.27             0.43   25.01
     1  GEOMET  ................      0.01    0.40             0.01    3.18             0.01    0.78
     1  FRAGM   ................      0.01    0.67             0.00    1.61             0.02    0.96
     1  INPUTA  ................      0.00    0.00             0.00    0.00             0.00    0.01
     1  ATDEN   ................      0.00    0.20             0.00    0.07             0.00    0.23
     1  MAINSY  ................      0.01    0.62             0.00    0.08             0.01    0.52
     1  SYMFIT  ................      0.00    0.00             0.00    0.00             0.00    0.04
     1  CORORT  ................      0.00    0.06             0.00    0.00             0.00    0.04
     1  SYMORB  ................      0.00    0.06             0.00    0.00             0.00    0.07
     1  CLSMAT  ................      0.01    0.42             0.00    0.00             0.01    0.31
     1  ORTHON  ................      0.00    0.14             0.00    0.00             0.00    0.18
     1  GENPT   ................      0.04    2.75             0.02    7.05             0.06    3.29
     1  PTBAS   ................      0.01    0.70             0.00    0.00             0.01    0.58
    14  FOCKY   ................      0.05   51.86             0.00   23.85             0.06   47.97
    14  FOCKTR  ................      0.00    0.70             0.00    1.44             0.00    0.58
    14  SDIIS   ................      0.00    0.98             0.00    0.00             0.00    0.96
     1  COREPS  ................      0.06    4.30             0.01    3.48             0.07    4.28
     1  TOTEN   ................      0.19   13.13             0.01    3.33             0.20   11.55
     1  POPAN   ................      0.00    0.00             0.00    0.00             0.00    0.28
     1  DEBYE   ................      0.00    0.00             0.00    1.76             0.00    0.10
     1  INPUTE  ................      0.00    0.00             0.00    0.00             0.00    0.04
     1  SYMORE  ................      0.00    0.00             0.00    0.00             0.00    0.03
     1  METS    ................      0.00    0.00             0.00    0.00             0.00    0.02
     1  CETS    ................      0.00    0.03             0.00    0.01             0.00    0.16
     1  ELNRGY  ................      0.00    0.29             0.00    1.63             0.01    0.30
     1  POPUL   ................      0.00    0.02             0.00    1.61             0.01    0.62
     1  EXIT PROCEDURE .........      0.01    0.93             0.00    1.63             0.02    1.04


 Currently Open Files (EXIT00)
 ====================

 Unit    Access Format  Status   Type       Ident (file)
 -------------------------------------------------------
   3      SEQ    FORM   TRANSP  NORMAL      LOGFILE
                                          ( logfile )


 Buffered I/O statistics
 =======================
 Memory available:                     67108864
 Number of records fitting in memory:     16131
 Input :   2.1% of                         6898  *4k bytes
 Output:   9.0% of                         4098  *4k bytes
 Records from serial files evicted:           0
                    others evicted:           0
 Hash table lookups:      29344 with          0 conflicts (  0.00%)

 ***************************************************************************************************
 (LOGFILE)
 <Feb28-2017> <12:33:39>  ADF 2016  RunTime: Feb28-2017 12:33:39  Nodes: 1  Procs: 1
 <Feb28-2017> <12:33:39>  Hydrogen (DZP)
 <Feb28-2017> <12:33:39>  RunType   : CREATE
 <Feb28-2017> <12:33:39>  Net Charge: 0 (Nuclei minus Electrons)
 <Feb28-2017> <12:33:39>  Symmetry  : ATOM
  Coordinates
    Atom         X           Y           Z   (Angstrom)
    1.H         0.000000    0.000000    0.000000
 <Feb28-2017> <12:33:39>  >>>> CORORT
 <Feb28-2017> <12:33:39>  >>>> CLSMAT
 <Feb28-2017> <12:33:39>  >>>> ORTHON
 <Feb28-2017> <12:33:39>  >>>> GENPT
 <Feb28-2017> <12:33:39>  Block Length=  64
 <Feb28-2017> <12:33:39>  >>>> PTBAS
 <Feb28-2017> <12:33:39>  >>>> CYCLE
 <Feb28-2017> <12:33:39>              |Error|         MaxErr       Wt(A-DIIS)
 <Feb28-2017> <12:33:39>      1      0.00000000      0.00000000
 <Feb28-2017> <12:33:39>      2      0.04821042      0.04821042
 <Feb28-2017> <12:33:39>      3      0.00844396      0.00844396    100.0
 <Feb28-2017> <12:33:39>      4      0.00142332      0.00142332      0.4
 <Feb28-2017> <12:33:39>      5      0.00000254      0.00000254      0.0
 <Feb28-2017> <12:33:40>      6      0.00000000      0.00000000      0.0
 <Feb28-2017> <12:33:40>  SCF converged
 <Feb28-2017> <12:33:40>      7      0.00000000      0.00000000      0.0
 <Feb28-2017> <12:33:40>   Solutions with partially occupied orbitals may not be
 <Feb28-2017> <12:33:40>   lowest in energy. You might consider lowering the
 <Feb28-2017> <12:33:40>   symmetry in the input and explicitly specifying integer
 <Feb28-2017> <12:33:40>   occupations. In that case always check that you obtain
 <Feb28-2017> <12:33:40>   an aufbau solution.
 <Feb28-2017> <12:33:40>  >>>> POPAN
 <Feb28-2017> <12:33:40>  >>>> DEBYE
 <Feb28-2017> <12:33:40>  NORMAL TERMINATION
 <Feb28-2017> <12:33:40>  END
 <Feb28-2017> <12:33:40>  ADF 2016  RunTime: Feb28-2017 12:33:40  Nodes: 1  Procs: 1
 <Feb28-2017> <12:33:40>  Nitrogen (DZP, 1s frozen)
 <Feb28-2017> <12:33:40>  RunType   : CREATE
 <Feb28-2017> <12:33:40>  Net Charge: 0 (Nuclei minus Electrons)
 <Feb28-2017> <12:33:40>  Symmetry  : ATOM
  Coordinates
    Atom         X           Y           Z   (Angstrom)
    1.N         0.000000    0.000000    0.000000
 <Feb28-2017> <12:33:40>  >>>> CORORT
 <Feb28-2017> <12:33:40>  >>>> CLSMAT
 <Feb28-2017> <12:33:40>  >>>> ORTHON
 <Feb28-2017> <12:33:40>  >>>> GENPT
 <Feb28-2017> <12:33:40>  Block Length=  68
 <Feb28-2017> <12:33:40>  >>>> PTBAS
 <Feb28-2017> <12:33:40>  >>>> CYCLE
 <Feb28-2017> <12:33:40>              |Error|         MaxErr       Wt(A-DIIS)
 <Feb28-2017> <12:33:40>      1      0.00000000      0.00000000
 <Feb28-2017> <12:33:40>      2      1.55352192      1.26545951
 <Feb28-2017> <12:33:40>      3      1.35596060      1.04517403    100.0
 <Feb28-2017> <12:33:40>      4      0.32649935      0.23288809    100.0
 <Feb28-2017> <12:33:40>      5      0.32072222      0.23021072    100.0
 <Feb28-2017> <12:33:40>      6      0.29637899      0.21257226    100.0
 <Feb28-2017> <12:33:40>      7      0.00904537      0.00653757      5.6
 <Feb28-2017> <12:33:40>      8      0.00038970      0.00027675      0.0
 <Feb28-2017> <12:33:40>      9      0.00000358      0.00000254      0.0
 <Feb28-2017> <12:33:40>     10      0.00000000      0.00000000      0.0
 <Feb28-2017> <12:33:40>  SCF converged
 <Feb28-2017> <12:33:40>     11      0.00000000      0.00000000      0.0
 <Feb28-2017> <12:33:40>   Solutions with partially occupied orbitals may not be
 <Feb28-2017> <12:33:40>   lowest in energy. You might consider lowering the
 <Feb28-2017> <12:33:40>   symmetry in the input and explicitly specifying integer
 <Feb28-2017> <12:33:40>   occupations. In that case always check that you obtain
 <Feb28-2017> <12:33:40>   an aufbau solution.
 <Feb28-2017> <12:33:40>  >>>> POPAN
 <Feb28-2017> <12:33:40>  >>>> DEBYE
 <Feb28-2017> <12:33:40>  NORMAL TERMINATION
 <Feb28-2017> <12:33:40>  END
 <Feb28-2017> <12:33:40>  ADF 2016  RunTime: Feb28-2017 12:33:40  Nodes: 1  Procs: 1
 <Feb28-2017> <12:33:40>  Carbon (DZP, 1s frozen)
 <Feb28-2017> <12:33:40>  RunType   : CREATE
 <Feb28-2017> <12:33:40>  Net Charge: 0 (Nuclei minus Electrons)
 <Feb28-2017> <12:33:40>  Symmetry  : ATOM
  Coordinates
    Atom         X           Y           Z   (Angstrom)
    1.C         0.000000    0.000000    0.000000
 <Feb28-2017> <12:33:40>  >>>> CORORT
 <Feb28-2017> <12:33:40>  >>>> CLSMAT
 <Feb28-2017> <12:33:40>  >>>> ORTHON
 <Feb28-2017> <12:33:40>  >>>> GENPT
 <Feb28-2017> <12:33:40>  Block Length=  68
 <Feb28-2017> <12:33:40>  >>>> PTBAS
 <Feb28-2017> <12:33:40>  >>>> CYCLE
 <Feb28-2017> <12:33:40>              |Error|         MaxErr       Wt(A-DIIS)
 <Feb28-2017> <12:33:40>      1      0.00000000      0.00000000
 <Feb28-2017> <12:33:40>      2      0.96171996      0.85251393
 <Feb28-2017> <12:33:40>      3      0.70122507      0.61067572    100.0
 <Feb28-2017> <12:33:40>      4      0.24646296      0.20483885    100.0
 <Feb28-2017> <12:33:40>      5      0.19766983      0.16582971    100.0
 <Feb28-2017> <12:33:40>      6      0.02770515      0.02303326     22.3
 <Feb28-2017> <12:33:40>      7      0.00502085      0.00418817      3.2
 <Feb28-2017> <12:33:40>      8      0.00011337      0.00009436      0.0
 <Feb28-2017> <12:33:40>      9      0.00000023      0.00000019      0.0
 <Feb28-2017> <12:33:40>     10      0.00000000      0.00000000      0.0
 <Feb28-2017> <12:33:40>  SCF converged
 <Feb28-2017> <12:33:40>     11      0.00000000      0.00000000      0.0
 <Feb28-2017> <12:33:40>   Solutions with partially occupied orbitals may not be
 <Feb28-2017> <12:33:40>   lowest in energy. You might consider lowering the
 <Feb28-2017> <12:33:40>   symmetry in the input and explicitly specifying integer
 <Feb28-2017> <12:33:40>   occupations. In that case always check that you obtain
 <Feb28-2017> <12:33:40>   an aufbau solution.
 <Feb28-2017> <12:33:40>  >>>> POPAN
 <Feb28-2017> <12:33:40>  >>>> DEBYE
 <Feb28-2017> <12:33:40>  NORMAL TERMINATION
 <Feb28-2017> <12:33:40>  END
 <Feb28-2017> <12:33:40>  ADF 2016  RunTime: Feb28-2017 12:33:40  Nodes: 1  Procs: 2
 <Feb28-2017> <12:33:41>  *** (NO TITLE) ***
 <Feb28-2017> <12:33:41>  RunType   : SINGLE POINT
 <Feb28-2017> <12:33:41>  Net Charge: 0 (Nuclei minus Electrons)
 <Feb28-2017> <12:33:41>  Symmetry  : C(3V)
 <Feb28-2017> <12:33:41>  >>>> FRAGM
  Coordinates
    Atom         X           Y           Z   (Angstrom)
    1.C         0.000000    0.000000    0.656511
    2.C         0.000000    0.000000   -0.783088
    3.N         0.000000    0.000000   -1.946913
    4.H        -0.512221   -0.887193    1.022016
    5.H         1.024442    0.000000    1.022016
    6.H        -0.512221    0.887193    1.022016
 <Feb28-2017> <12:33:41>  >>>> CORORT
 <Feb28-2017> <12:33:41>  >>>> CLSMAT
 <Feb28-2017> <12:33:41>  >>>> ORTHON
 <Feb28-2017> <12:33:41>  >>>> GENPT
 <Feb28-2017> <12:33:41>  Acc.Num.Int.=   4.000
 <Feb28-2017> <12:33:41>  Block Length= 126
 <Feb28-2017> <12:33:41>  >>>> PTBAS
 <Feb28-2017> <12:33:41>  >>>> CYCLE
 <Feb28-2017> <12:33:41>              |Error|         MaxErr       Wt(A-DIIS)
 <Feb28-2017> <12:33:41>      1      1.24920353      0.40539754
 <Feb28-2017> <12:33:41>      2      0.82842756      0.23452780    100.0
 <Feb28-2017> <12:33:41>      3      1.31369640      0.47481550    100.0
 <Feb28-2017> <12:33:41>      4      0.41532706      0.14608634    100.0
 <Feb28-2017> <12:33:41>      5      1.10513124      0.52789900    100.0
 <Feb28-2017> <12:33:41>      6      0.28541683      0.11034433    100.0
 <Feb28-2017> <12:33:41>      7      0.10653936      0.03268981     32.0
 <Feb28-2017> <12:33:41>      8      0.07824803      0.03412968     32.0
 <Feb28-2017> <12:33:41>      9      0.02108903      0.01043264      9.5
 <Feb28-2017> <12:33:42>     10      0.00452573      0.00220622      1.2
 <Feb28-2017> <12:33:42>     11      0.00017457      0.00007915      0.0
 <Feb28-2017> <12:33:42>     12      0.00001316      0.00000677      0.0
 <Feb28-2017> <12:33:42>     13      0.00000053      0.00000025      0.0
 <Feb28-2017> <12:33:42>  SCF converged
 <Feb28-2017> <12:33:42>     14      0.00000009      0.00000005      0.0
 <Feb28-2017> <12:33:42>  >>>> TOTEN
 <Feb28-2017> <12:33:42>  >>>> POPAN
 <Feb28-2017> <12:33:42>  >>>> DEBYE
 <Feb28-2017> <12:33:42>  >>>> AMETS
 <Feb28-2017> <12:33:42>   Bond Energy          -1.40948747 a.u.
 <Feb28-2017> <12:33:42>   Bond Energy         -38.35410562 eV
 <Feb28-2017> <12:33:42>   Bond Energy        -884.47       kcal/mol
 <Feb28-2017> <12:33:42>  >>>> POPUL
 <Feb28-2017> <12:33:42>  NORMAL TERMINATION
 <Feb28-2017> <12:33:42>  END
