     540
 i =        1, E =        -2.4315450270
 Br        -8.0954039552       15.4277066057       -0.3584575531
 Br        -8.2201070570       15.7502896326        8.7183014531
 Br         0.3784019934       -9.0520182212       -8.6742442812
 Br         0.6240717914       -8.6654825062       -0.7164396661
 Br         0.4652653676       -9.0331725640        8.4525117106
 Br         0.0127991483        3.2026310691       -8.7232750159
 Br         0.4710244636        3.1629482489        0.1939313590
 Br        -0.1385193280        3.1077363141        8.8044386151
 Br         0.4104339279       15.4463080990       -8.9131818028
 Br         0.4646547001       15.1308991403        0.1277531528
 Br         0.3802845473       15.3653971339        8.3536872570
 Br         8.6078627325       -8.8356985853       -8.7101369151
 Br         9.1633997562       -8.8603020303       -0.0370692749
 Br         8.8738758480       -8.8601683941        8.2483700551
 Br         8.6549648279        3.3685229869       -9.1542959337
 Br         8.4993083940        3.4769826239       -0.2646417195
 Br         8.4886867135        3.3241563377        8.2119451540
 Br         8.5842314697       15.1525320452       -7.9594187557
 Br         8.9055687231       15.4843027198       -0.1375092607
 Br         8.8743306802       15.2507984799        8.2581368194
 Pb       -12.7387202850      -12.1696768433      -12.7399587076
 Pb       -12.8063566143      -12.2911194928       -4.1123471949
 Pb       -12.7704316974      -12.2561105710        4.4067038828
 Pb       -12.8954690740       -0.0376213932      -12.7338503215
 Pb       -12.6421790881        0.1363032324       -4.2216811811
 Pb       -12.7604269065        0.4438227548        4.2891353281
 Pb       -12.8369297862       12.4472379120      -12.4755912287
 Pb       -12.7595622481       12.2128647021       -4.1159212180
 Pb       -12.6004548139       12.2313552489        4.1823337348
 Pb        -4.2226764322      -12.4092259078      -12.5140341384
 Pb        -4.2315301197      -12.0837689610       -4.1076218348
 Pb        -4.1288626878      -12.0299618827        4.0816470115
 Pb        -4.6736707802        0.1314630610      -12.7027057153
 Pb        -4.2850971837        0.1819692177       -4.2022716104
 Pb        -4.1178809075        0.2116404394        4.6277290524
 Pb        -4.4141694703       12.4563748940      -12.6339931744
 Pb        -4.5733624780       12.4190700185       -4.5034396116
 Pb        -4.2456142178       12.4621462423        4.4804990000
 Pb         4.3523797450      -12.0407142326      -13.0271257441
 Pb         4.5426680337      -11.7971663148       -4.3081833294
 Pb         4.3822393973      -11.8471142466        4.0491339567
 Pb         4.2349522274        0.1370916712      -12.7003585410
 Pb         4.2216136553        0.1943640271       -4.0129577000
 Pb         4.3737521628        0.2231104798        4.2519129801
 Pb         4.3696678583       12.4764156674      -12.5095921068
 Pb         4.1733161412       12.3009235033       -4.2092244795
 Pb         4.4018164371       12.2574616455        4.5533413237
 Pb        -8.6739506259      -11.9573872470       -8.3212384976
 Pb        -8.5988827746      -11.8644711059       -0.0119991546
 Pb        -8.4338870597      -12.0322457279        8.2712569552
 Pb        -8.5179637048       -0.0694780271       -8.2852979721
 Pb        -8.3534521615        0.2721380873        0.0669600992
 Pb        -8.5046745664        0.4187370801        8.6087459449
 Pb        -8.6452386151       12.6387063266       -8.5938999262
 Pb        -8.4969501842       12.2822107831       -0.0486872078
 Pb        -8.6463386857       12.6139300263        8.6114625613
 Pb         0.1166994931      -12.0938543578       -8.4144177662
 Pb         0.3121471924      -11.7345731602       -0.0449955707
 Pb         0.0607129520      -12.1267769114        8.4867570928
 Pb        -0.1443432909        0.0093780396       -8.7056420263
 Pb         0.1290347145        0.4176129969        0.0517145144
 Pb        -0.0960943459        0.1594991469        8.8548314475
 Pb         0.0330948946       12.2356733269       -8.4821155601
 Pb        -0.1704443723       12.3125251763        0.2963004938
 Pb        -0.0087943767       12.4984929162        8.8024096078
 Pb         8.5599418957      -12.0034637552       -8.3550034938
 Pb         8.7308755499      -11.9934983020       -0.0203799756
 Pb         8.6264756692      -11.7414796159        8.8608237645
 Pb         8.6762511973        0.0534639821       -8.4265898207
 Pb         8.8598490285        0.3933366734       -0.1312557519
 Pb         8.6292837330        0.3425920031        8.9945960086
 Pb         8.4624271453       12.1746956783       -8.3025623478
 Pb         8.3265887922       12.5284541476       -0.0388449404
 Pb         8.6899270355       12.2890852526        8.6283590093
 Pb       -12.8884743094      -18.1026494541      -12.8071804348
 Pb       -12.7462561925      -17.9682132053       -4.3316595302
 Pb       -12.6153697440      -18.2123942722        4.0682586395
 Pb       -12.5541127065       -6.1490091878      -12.7412092350
 Pb       -12.7675764319       -5.8959630055       -4.2539735689
 Pb       -12.5588250260       -5.5283878208        4.3849237425
 Pb       -12.6432260386        5.9954925247      -12.7449473751
 Pb       -12.7498622217        6.0431890403       -4.0560744087
 Pb       -12.8477458879        6.3050334407        4.3482256125
 Pb        -4.2172629099      -18.0388969153      -13.0152713559
 Pb        -4.3568955891      -18.3438594536       -4.3753007840
 Pb        -4.1819025555      -18.1439978087        4.6004029061
 Pb        -4.2221870099       -5.9623079654      -12.8759930516
 Pb        -4.2992442313       -6.2619029022       -4.1702637358
 Pb        -4.6171461426       -6.1104413795        4.4335900284
 Pb        -4.3687662017        6.1071036301      -12.6682085039
 Pb        -4.1486273233        6.3521840055       -3.8607339437
 Pb        -4.4002274951        6.2649944214        4.4963794076
 Pb         4.0848087148      -17.9910918626      -12.8846809164
 Pb         4.2728523066      -18.1157729730       -4.2762378974
 Pb         4.4877795733      -17.8040772754        4.3471647120
 Pb         4.2467209920       -6.0338849805      -13.0992921215
 Pb         4.1337218040       -5.6061252777       -4.0827589264
 Pb         4.6105708743       -5.6835442681        4.3171041213
 Pb         4.2160491592        6.4083765698      -12.4984074224
 Pb         4.2962838847        6.0591446425       -4.1138899656
 Pb         4.2733921071        6.3285153807        4.6298365326
 Pb        -8.6027938332      -17.6284478908       -8.4758076467
 Pb        -8.3693396278      -18.1212456879       -0.0946306908
 Pb        -8.8923734163      -17.9524860181        8.5309075027
 Pb        -8.3399175837       -6.0816459085       -8.4566566780
 Pb        -8.5528896334       -5.8275523122       -0.0247364445
 Pb        -8.3848687692       -5.7544006312        8.7775964791
 Pb        -8.3991298613        6.4538855110       -8.2654830910
 Pb        -8.6330181518        6.1894219700        0.2747531030
 Pb        -8.6311687428        6.4552862988        8.4933431448
 Pb        -0.3155956221      -18.0736015141       -8.6394477599
 Pb        -0.0934110999      -17.9821993292        0.1807558473
 Pb        -0.0519897474      -18.1200271471        8.6923101028
 Pb         0.1575111462       -6.1834929996       -8.8179299564
 Pb         0.0001648333       -5.7811565805       -0.0880094820
 Pb        -0.0112849349       -5.7862653726        8.4345258202
 Pb        -0.0235439999        6.1956982391       -8.1533528075
 Pb         0.1801972779        6.2720907078        0.2993530320
 Pb        -0.0223770814        6.3101766021        8.5479492201
 Pb         8.7017082798      -18.1853606151       -8.7086322585
 Pb         8.4096264499      -17.7994650099       -0.0632379198
 Pb         8.5401337231      -17.8305802083        8.5604913041
 Pb         8.4436165927       -5.9161250316       -8.5973100689
 Pb         9.0063694457       -5.7244284228        0.2126074296
 Pb         8.6737123063       -5.8741396220        8.7326854388
 Pb         8.5966784839        6.2252324526       -8.3405808792
 Pb         8.4573500956        6.4730980948        0.2622181852
 Pb         8.6125961126        6.2142877489        8.8154333759
 Cs        -8.5512760727      -14.6536324561      -12.8594595136
 Cs        -7.9585148461      -15.1234906977       -3.9681974320
 Cs        -8.3014508805      -14.9192123711        4.1724600133
 Cs        -8.6105306830       -2.9248726731      -12.6103652536
 Cs        -8.3191302846       -2.8131545360       -3.7310822920
 Cs        -8.6523762044       -2.3500268686        4.6160154080
 Cs        -8.3869241894        8.9906706399      -12.8764566139
 Cs        -8.3871229559        8.8287917671       -4.0571861252
 Cs        -8.2026832549        9.4367540454        4.6028272513
 Cs         0.6004835146      -14.8842674066      -13.0842864319
 Cs        -0.1464912051      -15.1583360279       -4.7855290805
 Cs         0.2669437630      -15.2791290988        4.6172439888
 Cs        -0.2503695012       -3.3186984289      -12.4149215448
 Cs        -0.4847563169       -2.8501742417       -4.6837582594
 Cs        -0.0124297305       -3.0918094107        4.2209792717
 Cs        -0.3661269505        8.9708504899      -13.3391949873
 Cs         0.1389817959        9.2919693927       -3.6836523008
 Cs         0.3376917136        9.3348866074        4.8031496547
 Cs         8.5239718442      -14.9305828967      -12.6266578676
 Cs         8.4834983906      -14.8080240139       -4.1754753028
 Cs         8.6647279820      -14.8480139840        4.0592066775
 Cs         8.4190477324       -3.3696595463      -12.6234530083
 Cs         8.3978975464       -2.8744687229       -4.0841083330
 Cs         8.5389848574       -2.5578803691        4.8046750140
 Cs         9.0052725131        9.1277148639      -12.4759623032
 Cs         8.7840882136        9.1943277184       -3.7487458005
 Cs         8.9068050549        9.1847463791        5.0950695859
 Cs        -4.2062527577       -8.8594670438       -8.3689309456
 Cs        -4.1558320520       -8.9320659293        0.1077888797
 Cs        -3.8353594823       -9.2751485338        8.5413246636
 Cs        -4.2336644771        2.8084667870       -8.3780282910
 Cs        -4.7775338418        3.5774270188        0.3322048265
 Cs        -4.6526927751        3.3607005356        9.4158781367
 Cs        -4.5684639026       15.0981800044       -8.7530676318
 Cs        -4.1312845771       15.6111725902        0.3473886730
 Cs        -4.7175837116       15.1669374076        8.5298872026
 Cs         4.4158187359       -9.1818981443       -9.1826363242
 Cs         4.3658580475       -8.6068037698        0.1774962399
 Cs         4.2765426878       -9.1289739511        8.1232990987
 Cs         4.8863111196        3.1208843938       -8.9150847277
 Cs         4.5161712203        3.2006170470        0.1859925870
 Cs         3.9813573841        3.3774890506        9.0514001750
 Cs         3.8154244596       15.1633966840       -7.6475944977
 Cs         3.8020565136       15.3927010327        0.4164771078
 Cs         4.2734025446       15.4811364695        9.2339985424
 Cs        12.2459330578       -8.9341179404       -7.8952018963
 Cs        12.9716167802       -8.8741139922       -0.0163131757
 Cs        13.1354076478       -9.4605900218        8.3763349037
 Cs        12.9423944448        3.1976777637       -8.6326490608
 Cs        12.1395844197        3.7104790846        0.5469675819
 Cs        12.4455481690        3.0655556929        8.7806799214
 Cs        12.7686733057       14.9413828345       -8.0185185252
 Cs        12.7037880703       15.1630893317       -0.0879557455
 Cs        12.7950361068       15.0703775242        8.2612146764
 Cs        -8.7151883271       -9.3276166513       -4.4409426149
 Cs        -8.6188316083       -8.7910275906        4.1439877804
 Cs        -8.6427339228       -8.8422468061       13.0295101014
 Cs        -8.5428788526        3.2520510615       -4.1842204525
 Cs        -8.3776553955        3.2568371747        4.7413901576
 Cs        -8.6077421644        3.4405781974       12.9315535632
 Cs        -8.8875751800       15.7688082595       -3.9815458332
 Cs        -8.6667091218       15.0655600474        3.5672296379
 Cs        -8.4523346312       15.6316422370       12.6569788548
 Cs        -0.0739739211       -9.0563849297       -4.2980387139
 Cs         0.0214763711       -8.4809005579        3.8618253205
 Cs        -0.0365422005       -9.2385627882       12.4052829757
 Cs        -0.1807934494        3.1209072598       -4.1917193965
 Cs         0.5754522773        2.5633195267        4.6108170051
 Cs         0.2334423312        3.3869499729       13.2997538118
 Cs         0.1069804940       15.9086737675       -3.7685740129
 Cs         0.7100465999       15.2540024670        4.9476323743
 Cs         0.1800715996       15.7322767904       13.2658747585
 Cs         8.2045814660       -8.0297361294       -4.5533383814
 Cs         9.0857354461       -8.9334238654        3.9257100752
 Cs         8.8394394335       -8.5778585544       13.2033286172
 Cs         9.0156795078        3.5199060056       -3.9627426259
 Cs         7.7753885451        3.1044756443        3.9355140338
 Cs         7.9976222443        3.5627791487       12.7914883817
 Cs         8.5664717573       14.9268637547       -3.8319887963
 Cs         8.3796004388       15.3448421337        4.3345881646
 Cs         8.3502632016       15.0788887317       12.5633821606
 Cs       -12.6935183129      -15.5266197785       -8.4160922964
 Cs       -11.9615587257      -15.2112007766        0.1647547401
 Cs       -12.4315289999      -15.0156072749        8.5985856373
 Cs       -12.4163970619       -2.5588920547       -8.6939942369
 Cs       -12.2471604101       -2.4334140805        0.0312896150
 Cs       -13.0433295716       -3.0139201790        9.0630140205
 Cs       -12.0519692292        9.0741353673       -8.7988100636
 Cs       -12.9754471290        9.8157002588       -0.0778672164
 Cs       -12.5138010681        9.6233905851        9.1390528408
 Cs        -3.6231372241      -14.9651888935       -9.0540706808
 Cs        -3.9690776584      -14.8941391820       -0.3619022619
 Cs        -4.3317531671      -15.1048086944        8.5377868136
 Cs        -4.1996385018       -2.6271054416       -8.1341978457
 Cs        -3.8689865057       -2.5106174128        0.4560659345
 Cs        -4.0352811823       -2.9521073756        8.5793930026
 Cs        -3.8106610776        8.8378537126       -8.9242393673
 Cs        -3.8198564891        9.3803272664        0.5209116996
 Cs        -3.7864266750        9.3756155260        8.6306856648
 Cs         4.4897124771      -15.4465114365       -8.5159252790
 Cs         4.0802384872      -15.4041494720       -0.3849319714
 Cs         4.6312522990      -14.6344176518        8.3730389028
 Cs         4.8006952875       -2.7889271825       -8.6628503580
 Cs         4.1944678177       -2.8704675660        0.2073660072
 Cs         3.7321991385       -2.6595581873        8.6986566093
 Cs         4.2234445873        8.9455379341       -8.1416493214
 Cs         4.5359215363        9.5956127741        0.1060206467
 Cs         4.4958737436        9.3587237085        8.6656659900
 Br       -10.1536947781      -12.1614144251      -10.8561707796
 Br       -10.6126398551      -11.7647480363       -2.1611368394
 Br       -10.2792809353      -11.9500610515        6.0355219205
 Br       -10.5580854851       -0.2199298228      -10.7477019031
 Br        -9.9749772134        0.0611923095       -2.5274082808
 Br       -10.1625923593        0.3259754143        6.0600392415
 Br        -9.8970177585       11.7412523612      -10.9717655670
 Br       -10.7182884164       12.4297842544       -1.7517243544
 Br       -10.3528177689       12.2224925020        6.1995098882
 Br        -2.3244263843      -11.7140741516      -10.2507282716
 Br        -1.7895846769      -12.4169272866       -2.0762503832
 Br        -1.9941040259      -11.9270596469        6.2413767479
 Br        -2.2635070632        0.6957135878      -11.0186555213
 Br        -1.7832609847        0.3034305448       -2.5491796968
 Br        -1.7341680324       -0.4732250034        6.1768404471
 Br        -1.6436136658       12.2225792616      -11.0577609383
 Br        -2.2139735253       12.3604349731       -1.6603651573
 Br        -1.6836102532       12.1558801906        6.2803287053
 Br         6.9911047481      -12.0039798765      -11.1698765423
 Br         7.1506445169      -11.8124831310       -2.6775405832
 Br         6.8973241163      -12.1947217859        6.0636847605
 Br         6.6914780232        0.5507503687      -10.8722551320
 Br         7.0145466156        0.4007354342       -2.6869730369
 Br         6.5209169074        0.3865612128        6.1724958313
 Br         7.1701862487       12.3234756683      -10.9976620921
 Br         6.5318896707       12.1031363341       -2.4237289116
 Br         6.9460068439       11.8947045548        6.2502485996
 Br       -11.1842020031      -11.7160628684       -6.5790703813
 Br       -10.6901372121      -11.6785830280        2.0613022975
 Br       -10.5797552867      -12.2135555594       10.4211781323
 Br       -11.1107156773        0.4122437963       -6.7340141436
 Br       -10.9098989202        0.8074425574        1.6916566143
 Br       -11.2144098736        0.1932561359       10.4396393393
 Br       -10.9070273352       12.4824568091       -6.4456104649
 Br       -10.7617802363       12.7911834933        1.9343405698
 Br       -11.2249623506       12.8404361920       10.2476132990
 Br        -2.1042612687      -12.0125136452       -6.5370852093
 Br        -1.9397050333      -11.1522523786        1.9986258951
 Br        -2.2233632440      -11.5389737988       10.9470710908
 Br        -2.2384492135        0.2497785045       -6.6366994828
 Br        -2.3463871200        0.9207471005        2.4829513954
 Br        -2.8930342453        0.1737969902       10.1819743444
 Br        -2.2385790765       12.6940000898       -6.6614275759
 Br        -2.2590090303       13.1081868794        2.1231540710
 Br        -2.6136879790       12.4760684797       10.3988625357
 Br         5.8193684728      -12.2370325672       -7.0778582665
 Br         5.8361164872      -11.7215134287        1.5660106502
 Br         6.3554845199      -11.4997151207       10.4368313298
 Br         6.0787702596        0.3158784833       -6.8222697360
 Br         6.4084318645       -0.3448586961        2.1314062106
 Br         6.0514979881        0.6820804822       10.4580832842
 Br         6.0553054469       12.5067367598       -6.6432349343
 Br         5.9000628612       12.7911352166        1.6502034997
 Br         6.2637683383       12.7372703620       10.3822569720
 Br        -6.8879370348       -6.2919616765       -5.8662053504
 Br        -7.1441107822       -5.5306933350        3.1623018630
 Br        -6.8749854052       -5.5391211762       11.1673053070
 Br        -6.7352124950        6.1385947516       -5.7741340638
 Br        -6.8390741731        6.3109077837        2.7195214628
 Br        -6.6989214780        6.2060301293       11.0543002263
 Br        -6.5315723320       18.3824153584       -5.9693458187
 Br        -6.2557506509       17.7700090113        2.5541676127
 Br        -6.7117328025       18.6504742432       11.1823447984
 Br         1.6068399290       -5.5595309363       -6.0668302381
 Br         2.2413340377       -5.8704618200        2.2725913455
 Br         1.8128988828       -5.8024682050       10.9338925410
 Br         1.9554239455        6.4020203225       -5.8098847495
 Br         1.9322619182        6.7480196072        2.7540711335
 Br         2.0736845020        6.6418725628       11.0868187639
 Br         1.7477582697       18.3248021577       -5.8207849118
 Br         2.0506709148       18.3389509786        2.8014974105
 Br         1.5276392373       18.4879789458       11.2849363501
 Br        10.5789669755       -5.7868026425       -6.3281898743
 Br        10.4513368593       -5.2830951614        2.9369923872
 Br        10.5936215983       -6.5094763986       11.0393917388
 Br        10.2327857126        6.1048981728       -5.8950596017
 Br        10.2107845244        5.7706670733        2.9996829654
 Br        10.5431523734        5.8119386972       11.1742153130
 Br        10.5892692063       17.9937255956       -5.8846869176
 Br        10.5294084531       18.5327790205        2.4733823425
 Br        10.1857319584       18.0901967260       11.7207223780
 Br        -5.7309030324      -17.6462264333      -10.4837683132
 Br        -5.8519736616      -17.7568321705       -1.7495782049
 Br        -6.5791702906      -17.9719068228        6.2824194456
 Br        -6.0327183742       -5.7095610045      -10.0129507328
 Br        -6.2176694706       -5.8456701144       -1.7002709378
 Br        -6.2145767024       -5.3903167094        6.7883871768
 Br        -6.0843891406        6.1180876722      -10.1521061576
 Br        -5.9019284127        6.6708706747       -1.4393877451
 Br        -5.8359528099        6.8623686121        6.8089321658
 Br         2.2893274522      -17.7093636488      -10.2768020033
 Br         1.9806184274      -17.8434718949       -2.2568283101
 Br         2.6428350406      -17.4502650226        6.8766520535
 Br         2.6723551859       -5.5359132143      -10.2056824752
 Br         2.2180363082       -4.8267326752       -1.9986543153
 Br         1.9675506755       -5.7659649052        6.3326123987
 Br         2.3740894637        5.8793692938      -10.2711994409
 Br         2.8992468633        6.4139561853       -1.2694809297
 Br         2.5581493666        6.3895714413        7.2198149536
 Br        11.3320332568      -18.2695910486      -10.0925352095
 Br        11.0941981750      -17.6626953489       -1.7950880706
 Br        11.0598669186      -17.6790068836        6.3261647371
 Br        10.8756955108       -5.8448853521      -10.4519059398
 Br        11.0848967247       -5.2143057627       -1.8351687424
 Br        10.5835291906       -4.8612593955        6.7080862853
 Br        11.0490574634        6.6556310059      -10.1469810351
 Br        10.9506547309        6.5605562717       -1.3172273081
 Br        11.1863127308        6.8916027153        7.0965255444
 Br        -6.6078898646      -12.2976564687       -6.1557840723
 Br        -6.3869571067      -12.4122475506        1.9689390064
 Br        -6.1954150003      -12.3989006340       10.7487750794
 Br        -6.7753487906        0.2032697347       -5.7943797167
 Br        -6.4297184535        0.8623528224        2.1934881484
 Br        -7.1103878343        0.5522213577       11.2769065585
 Br        -6.7146154894       13.4073793816       -6.2702293284
 Br        -6.6628000376       12.4526888945        2.6507353844
 Br        -6.7973722585       12.6560256454       11.1753055247
 Br         1.6659204561      -11.8903742900       -5.7742906093
 Br         2.1616464313      -11.0295157080        2.4180450835
 Br         1.9860323531      -11.9436060710       10.6213214158
 Br         1.8558479566        0.0482433760       -5.9288962210
 Br         1.8410513974        0.0770087547        2.5082840588
 Br         1.4220184109        0.0725979785       11.4756736362
 Br         1.7741280945       12.3076072369       -5.8652488366
 Br         2.0007822724       12.4126561749        2.7725563273
 Br         1.7684534893       12.9128161694       11.4566974312
 Br         9.9966150590      -11.9037340732       -5.8767281162
 Br        10.1534177906      -12.0336839424        2.6762398203
 Br        10.6780272916      -11.1532357259       11.0046947326
 Br        10.1018890268        0.1884349075       -5.6547910168
 Br        10.2671751144        0.7289642784        2.4134759189
 Br        10.0045522929        0.7459572708       11.5530836481
 Br        10.5250784632       12.3518523606       -5.9827265034
 Br        10.6055359059       12.6938587134        2.4979514345
 Br        10.4161434454       12.3541550994       11.4389516723
 Br        -6.4593901846      -12.5804022840      -10.4024722738
 Br        -6.1680276950      -11.8364748476       -2.1857672936
 Br        -6.2371138520      -12.0451204580        6.1984458306
 Br        -5.9417379246        0.0355178335       -9.7761332118
 Br        -5.6909458974        0.1107537263       -1.5051616651
 Br        -6.1401109416       -0.3486659159        6.7457663857
 Br        -6.0308367568       11.9542766134      -10.1999950013
 Br        -6.4890387702       11.6633961389       -2.5464631325
 Br        -5.9714828703       11.9945470345        7.2515273871
 Br         2.7949704865      -12.4484441171      -10.3744438187
 Br         2.8169614900      -11.9070073206       -1.6947002478
 Br         2.2754832793      -12.5033971618        6.5893300401
 Br         2.5267023305       -0.2455307190      -10.2652740833
 Br         2.7732136443       -0.2753104376       -1.4313160921
 Br         2.4564163777        0.4734298984        7.0544274640
 Br         2.7964658517       12.1298494947       -9.9947753950
 Br         2.6477668377       12.4692562595       -1.4553631923
 Br         2.4487071757       12.3639634746        7.1602966756
 Br        11.0505212554      -12.3461555108      -10.3112928689
 Br        10.8542547408      -13.0696736011       -1.5873967039
 Br        10.9708091754      -12.2179116960        6.8982942192
 Br        11.0871294672        0.2481781449      -10.1783042515
 Br        11.5517402171        0.4904145995       -1.2896472474
 Br        10.8455971228        0.5289913982        6.8545758082
 Br        11.1808802067       12.2393289772       -9.9444922687
 Br        10.7371520775       12.1588634675       -1.9046242915
 Br        11.0801433220       11.4734231751        6.8397941445
 Br       -10.2312476118      -17.2988057924      -10.7359766576
 Br       -10.3707620380      -17.7665826661       -2.4965854418
 Br       -10.5028203411      -18.8880772792        6.0427979574
 Br        -9.6975190158       -5.7544061166      -11.0789021692
 Br       -10.0540758548       -6.4165281713       -2.5574055246
 Br       -10.0724206940       -5.9268790548        6.1213871084
 Br        -9.9174153365        6.1545051090      -11.3684741647
 Br       -10.4812458272        6.1331888825       -2.3027115371
 Br       -10.0192094083        6.7871156160        5.9862659794
 Br        -1.5911705322      -17.9305653647      -11.2727525940
 Br        -1.9292143170      -17.9376083029       -2.2919390489
 Br        -1.5053384143      -18.3577745375        6.0907277469
 Br        -1.4651247110       -6.4667880259      -11.5904402608
 Br        -1.8176647432       -5.7080156796       -2.5189598366
 Br        -2.1628424348       -6.0638589697        6.3616595898
 Br        -1.8033529572        6.3704461197      -11.0562847906
 Br        -1.4736195910        6.0354811177       -2.3046444797
 Br        -1.6518890488        6.6503843616        5.9763364954
 Br         7.2963276345      -18.3544202046      -11.2799080401
 Br         6.1459070203      -18.3341748193       -1.8066071421
 Br         6.5861423361      -17.2028558774        6.3668387860
 Br         6.7030221034       -6.1384585658      -10.9863137481
 Br         6.7687325901       -5.7966273519       -2.0860269916
 Br         6.5354805282       -5.3802159572        6.6393740772
 Br         6.6478559045        6.7923162327      -10.3913078090
 Br         7.0728756773        6.4717123022       -2.3344129577
 Br         6.9424392810        6.1921403151        6.3540310264
 Br       -11.0220275385       -6.3056796055       -6.5713009345
 Br       -11.3050282985       -6.1037442394        1.9226737414
 Br       -11.0370486607       -6.2179650102       10.3050874140
 Br       -10.8586960761        6.3327878368       -6.4941223236
 Br       -10.8982307287        5.9429373794        1.9130434487
 Br       -11.3188899934        6.3022807178       10.0439043172
 Br       -10.8544882958       17.7619630213       -6.3958533153
 Br       -10.9883081725       17.8836640349        1.7488730159
 Br       -11.1737373339       18.9103032801       10.7859423281
 Br        -2.4368867063       -5.7798981175       -6.6797778937
 Br        -2.1719694153       -6.4504200735        1.8969153516
 Br        -2.5646114452       -6.0324667267       10.1960537993
 Br        -2.3951026349        5.6660827493       -6.4542210925
 Br        -2.3433077279        6.1757678536        1.9072895790
 Br        -2.2866875714        6.4544696139       10.3679303524
 Br        -2.8145852446       18.1504352211       -6.5473305786
 Br        -2.3996468677       18.2132150854        2.1752686003
 Br        -2.5088216022       17.6622625009       10.2729554375
 Br         6.1175523195       -5.8245387214       -6.6420775452
 Br         6.5949939953       -5.8960093137        1.9338360498
 Br         6.0428813505       -6.1268644610       10.2346113228
 Br         6.3181689845        5.5201625941       -6.3831992194
 Br         6.3012070718        6.2881579769        2.4519856408
 Br         6.1308650775        5.9804261108       10.6864429961
 Br         6.0691650469       18.1385576315       -6.5497292560
 Br         6.3510356542       17.7308889439        2.4293787582
 Br         5.8348936696       18.2154291052       10.2748486816
 Br       -12.3056502898       -9.0165125381      -12.4946410404
 Br       -13.4075277609       -9.1070216378       -4.0767603614
 Br       -12.5961623954       -9.0634489967        4.3265389586
 Br       -12.2932553397        3.1424745691      -12.5409021374
 Br       -12.5752095953        3.0619365767       -4.4612842877
 Br       -12.1643455286        3.5913335519        4.9937546320
 Br       -12.1915647867       15.4482775317      -12.4986784573
 Br       -12.8936076720       15.0661508726       -3.7375858015