     540
 i =        1, E =        -2.4315450270
 Br        -0.0005302413       -0.0184890350       -0.0000368745
 Br         0.0057718567       -0.0314081320        0.0112903587
 Br         0.0014888360        0.0006915738        0.0001538932
 Br        -0.0016344905        0.0009824022       -0.0003554367
 Br        -0.0021247353        0.0022883000       -0.0016865946
 Br        -0.0000160026       -0.0031068187        0.0011414751
 Br         0.0005380879        0.0038555597       -0.0007487377
 Br        -0.0004953812        0.0027309091       -0.0002628131
 Br        -0.0033398420       -0.0148354661        0.0038267175
 Br        -0.0017300642        0.0093271263        0.0007828994
 Br         0.0028222455       -0.0082171824        0.0049729051
 Br         0.0006895987       -0.0040182467        0.0015286300
 Br         0.0009758285        0.0000382706        0.0001831294
 Br        -0.0021318131        0.0021392945       -0.0043400975
 Br         0.0022776364        0.0026831364        0.0025269977
 Br        -0.0002550524       -0.0041476384        0.0028345264
 Br         0.0028417535       -0.0020461215        0.0061014639
 Br         0.0005718928        0.0018024568       -0.0043066990
 Br         0.0011635885       -0.0058463943        0.0015149816
 Br         0.0008336364        0.0008119313        0.0000549137
 Pb         0.0087575868       -0.0002823616        0.0327405502
 Pb        -0.0002822239        0.0023395556       -0.0004909945
 Pb         0.0013396537        0.0013513569       -0.0028561426
 Pb        -0.0538045292        0.0034423925        0.0934139562
 Pb        -0.0000048587       -0.0002555177        0.0000269569
 Pb        -0.0008737163        0.0008763659        0.0014163800
 Pb         0.0205417733        0.0135948141        0.0436664803
 Pb         0.0022051208       -0.0028416778       -0.0017298595
 Pb        -0.0021604141       -0.0019802961        0.0013049778
 Pb         0.0057958617        0.0071119571        0.0287984599
 Pb         0.0036405653        0.0010213945       -0.0067111592
 Pb         0.0009594990       -0.0007229290        0.0003126666
 Pb         0.0043312023       -0.0236170480        0.0460728407
 Pb        -0.0003088745        0.0010044779        0.0032476615
 Pb        -0.0008853549        0.0004815345       -0.0007919940
 Pb        -0.0091945579       -0.0090105363        0.0382488662
 Pb         0.0030156559       -0.0061165154        0.0009514126
 Pb         0.0015565704       -0.0043631555       -0.0004516696
 Pb        -0.0242389100        0.0029193373        0.0542297390
 Pb        -0.0026777474        0.0000820015        0.0008789630
 Pb         0.0007777106       -0.0018766419        0.0007282522
 Pb        -0.0213908920       -0.0098710409        0.0440214328
 Pb         0.0008503872        0.0003647450       -0.0031001182
 Pb        -0.0009233261       -0.0103103819        0.0017634105
 Pb        -0.0052308370       -0.0190132138        0.0312371759
 Pb         0.0007907661       -0.0057087920        0.0059811104
 Pb         0.0021906706       -0.0016940397       -0.0006337040
 Pb         0.0008941152       -0.0062269739        0.0017403192
 Pb         0.0039783156       -0.0001160288        0.0005101100
 Pb         0.0055764959        0.0081771646       -0.0084218902
 Pb         0.0015007495        0.0024758523        0.0008696856
 Pb         0.0002595147        0.0018937357        0.0010374500
 Pb        -0.0077688557       -0.0002473060       -0.0066719166
 Pb         0.0022501294       -0.0088717210        0.0072604774
 Pb         0.0037789118       -0.0048749598       -0.0029552997
 Pb         0.0007119208       -0.0035785218       -0.0044306372
 Pb         0.0033621014        0.0014420393       -0.0005474959
 Pb        -0.0003111802       -0.0020820637        0.0001280892
 Pb        -0.0061543865        0.0155423963       -0.0229797535
 Pb         0.0028197386       -0.0099622164        0.0086956199
 Pb        -0.0014434372       -0.0039447872       -0.0000715060
 Pb        -0.0037512932        0.0032369800       -0.0042368483
 Pb        -0.0007665006       -0.0074475571        0.0033077989
 Pb         0.0051748923        0.0002437978        0.0005295079
 Pb         0.0021034062        0.0066731793       -0.0076516450
 Pb        -0.0011542267       -0.0050857722       -0.0004130334
 Pb        -0.0028390163        0.0017244816       -0.0002661766
 Pb         0.0059286378        0.0059727515       -0.0174630869
 Pb         0.0015261914        0.0011750368        0.0013905774
 Pb        -0.0045544551       -0.0047300488        0.0004373765
 Pb        -0.0114672091        0.0013484266       -0.0146606118
 Pb         0.0006796318       -0.0036859506        0.0029085965
 Pb         0.0013597923       -0.0030529746        0.0073627016
 Pb        -0.0024755095        0.0022901508       -0.0050664817
 Pb        -0.0586161927       -0.0340856122        0.0642042601
 Pb        -0.0035103481        0.0030585545        0.0075475466
 Pb         0.0006574537        0.0155915743        0.0016730528
 Pb        -0.0710864841       -0.0047308936        0.1078484827
 Pb         0.0017950247        0.0020831475        0.0012839734
 Pb        -0.0007619831       -0.0006430574        0.0026977554
 Pb        -0.0177767340       -0.0017444060        0.0777490420
 Pb         0.0037508275        0.0045554371       -0.0013726835
 Pb         0.0036679675        0.0030086709        0.0042526735
 Pb        -0.0798381063        0.0212524341        0.0993125084
 Pb         0.0016321661        0.0102847696        0.0034636268
 Pb         0.0002587159        0.0150354756       -0.0025628539
 Pb        -0.0470387693       -0.0050412161        0.0687512850
 Pb        -0.0008122386        0.0043532509       -0.0002399676
 Pb         0.0037036009        0.0030272288       -0.0004581346
 Pb         0.0161163373        0.0596419098        0.0755832926
 Pb         0.0003692677       -0.0015450933       -0.0017330828
 Pb         0.0050449431       -0.0006285922       -0.0011841489
 Pb        -0.0403384634        0.1138316570        0.1613884179
 Pb         0.0037196136        0.0250146170        0.0059403058
 Pb        -0.0019596504        0.0021789609        0.0040728847
 Pb        -0.0676351568       -0.0004109570        0.0794324324
 Pb        -0.0019161233       -0.0004240817       -0.0023784791
 Pb        -0.0010157414       -0.0020868416        0.0007581283
 Pb         0.0061726539        0.0092631643        0.0436397862
 Pb         0.0015657081        0.0004358700        0.0013255471
 Pb         0.0003107732       -0.0014285133       -0.0007979010
 Pb         0.0062042683        0.0026124076        0.0062344870
 Pb         0.0017772024        0.0198271099        0.0061487728
 Pb         0.0031272798        0.0212246064       -0.0125521925
 Pb        -0.0017095500        0.0152729858        0.0161594824
 Pb         0.0003709497       -0.0015718474        0.0025773531
 Pb        -0.0034088835       -0.0091574803       -0.0202544218
 Pb         0.0051757880       -0.0030340424        0.0024593552
 Pb        -0.0016517778        0.0039835924       -0.0013156211
 Pb         0.0013312264       -0.0141448002       -0.0203086562
 Pb        -0.0219489068        0.1220053887        0.1422243022
 Pb        -0.0002120095        0.0072986888        0.0055836471
 Pb        -0.0013908504        0.0049279997       -0.0133905011
 Pb         0.0002752421        0.0034471854        0.0088725284
 Pb         0.0000664964        0.0017594591       -0.0018516805
 Pb        -0.0011268615       -0.0072574722       -0.0099225956
 Pb         0.0018861734        0.0085462031        0.0104667176
 Pb         0.0007112271       -0.0020133630        0.0008712977
 Pb         0.0062749995       -0.0505795644       -0.0494154700
 Pb        -0.0014922341        0.0093302111        0.0101414270
 Pb         0.0027807555        0.0008486492        0.0016018364
 Pb        -0.0005047434       -0.0024733397       -0.0102052314
 Pb        -0.0036982247        0.0390757832        0.0366140333
 Pb        -0.0026701154        0.0012724097       -0.0013358271
 Pb         0.0007839873       -0.0166109609       -0.0257690579
 Pb         0.0034565426        0.0059798694        0.0077555311
 Pb        -0.0030143205        0.0023441765        0.0016582042
 Pb        -0.0034113553       -0.0047776551       -0.0109844447
 Cs         0.0042157237       -0.0039328277        0.0200518893
 Cs        -0.0035604661        0.0047217069       -0.0046549976
 Cs         0.0013752700       -0.0008331856        0.0009708943
 Cs         0.0031417194        0.0063696950        0.0127532140
 Cs         0.0009456940       -0.0007535034       -0.0052689824
 Cs         0.0015304330       -0.0033778383       -0.0008257425
 Cs         0.0110639449        0.0139113385        0.0254590691
 Cs        -0.0006957351        0.0040738063        0.0009755025
 Cs        -0.0022343860       -0.0006448616       -0.0017811256
 Cs        -0.0052882560       -0.0079831215        0.0285229879
 Cs         0.0016696963        0.0067130347        0.0037348883
 Cs        -0.0017520192        0.0029160655       -0.0028315273
 Cs         0.0022249262        0.0052406507        0.0083116694
 Cs         0.0080672916       -0.0022583560        0.0062209982
 Cs         0.0012254571        0.0025374373        0.0014565103
 Cs         0.0485097464        0.0316584579        0.0990781507
 Cs        -0.0009586456        0.0002107480       -0.0029577445
 Cs        -0.0017444431        0.0002945011       -0.0038329126
 Cs         0.0018765306       -0.0012898402        0.0127216425
 Cs         0.0005407768       -0.0014779774       -0.0007543258
 Cs        -0.0005156608       -0.0008394716        0.0009374682
 Cs        -0.0060397776        0.0173583961        0.0218911592
 Cs         0.0015073008        0.0061203812        0.0002092146
 Cs         0.0009284876       -0.0011305779       -0.0016420102
 Cs        -0.0075846369        0.0035265818        0.0134502629
 Cs        -0.0034745576       -0.0003156148       -0.0061296909
 Cs        -0.0018631610        0.0003710846       -0.0057445303
 Cs         0.0011683027       -0.0015711096       -0.0000463441
 Cs        -0.0012876668        0.0002411400       -0.0008855030
 Cs        -0.0037837619        0.0002395494       -0.0061733361
 Cs        -0.0021067459        0.0038201405        0.0016635217
 Cs         0.0057523192       -0.0028932272       -0.0009136983
 Cs        -0.0015675895       -0.0432089586       -0.0812032971
 Cs         0.0052921378        0.0014125697        0.0079926637
 Cs        -0.0003808417       -0.0046147434       -0.0020018389
 Cs         0.0013126775       -0.0052679165       -0.0188547828
 Cs        -0.0073687655       -0.0002137693        0.0087056134
 Cs         0.0014614958       -0.0015196436       -0.0019314779
 Cs        -0.0000187411        0.0042370793       -0.0069242044
 Cs        -0.0616564165       -0.0095098261        0.0646754511
 Cs        -0.0075244427        0.0011831157       -0.0088416663
 Cs         0.0001100891       -0.0001349924       -0.0180499313
 Cs         0.0059112033       -0.0039612379       -0.0118933155
 Cs         0.0046797313       -0.0056496135       -0.0019895080
 Cs         0.0068321774       -0.0994494126       -0.1295328566
 Cs         0.0135653129       -0.0023672804        0.0039937139
 Cs        -0.0004899568       -0.0002448466       -0.0012288518
 Cs        -0.0020867013        0.0089117733       -0.0060113612
 Cs        -0.0068739811       -0.0008107284        0.0064968862
 Cs         0.0086806724       -0.0025388827       -0.0027702021
 Cs         0.0019359662       -0.0004403337       -0.0176868985
 Cs        -0.0023623976        0.0002088217       -0.0032969083
 Cs        -0.0016886383        0.0026386105        0.0005411378
 Cs        -0.0018598171        0.0011553708       -0.0060763417
 Cs         0.0012090077        0.0034499527        0.0030508978
 Cs        -0.0002316237       -0.0010221115        0.0008249845
 Cs        -0.0011027022       -0.0095071975       -0.0201215559
 Cs         0.0003458798       -0.0015619272        0.0001017155
 Cs        -0.0019502448        0.0014116367       -0.0025115428
 Cs         0.0026074601       -0.0035779847       -0.0075316704
 Cs         0.0050793763       -0.0120988157       -0.0063779900
 Cs         0.0023693235        0.0016061811        0.0092178947
 Cs        -0.0065212659       -0.0009850791       -0.0112943546
 Cs         0.0020628354        0.0005828105       -0.0001865709
 Cs         0.0004296527       -0.0044213881        0.0036610246
 Cs        -0.0005267186       -0.0001427419       -0.0043870771
 Cs         0.0013690821        0.0002852113        0.0003787633
 Cs        -0.0075198856        0.0060124105       -0.0008822173
 Cs        -0.0007818891        0.0006120986       -0.0231432582
 Cs        -0.0038506026       -0.0127206184       -0.0032431038
 Cs        -0.0054312388       -0.0019286787       -0.0040602143
 Cs         0.0222993670       -0.1147611264       -0.1484101531
 Cs        -0.0012948129       -0.0097867169        0.0068346558
 Cs        -0.0025530224        0.0004969706        0.0036115329
 Cs         0.0054418959       -0.0350165243       -0.0544296503
 Cs        -0.0070243708       -0.0043065967       -0.0032351765
 Cs         0.0134073731        0.0039971002        0.0107891704
 Cs         0.0653002543        0.0010747206       -0.0619557629
 Cs        -0.0012556068        0.0049306974       -0.0074438487
 Cs         0.0018514659       -0.0013945116       -0.0005197457
 Cs         0.0032192986       -0.0026779984       -0.0045356477
 Cs        -0.0028178862        0.0065996488       -0.0020736330
 Cs        -0.0080109032        0.0017254389       -0.0019262358
 Cs        -0.0096651175       -0.0021507072       -0.0191404754
 Cs        -0.0046439513       -0.0049185176        0.0029654137
 Cs        -0.0051998827       -0.0017163089        0.0015036885
 Cs         0.0046719799       -0.0048443923       -0.0363374630
 Cs        -0.0076740169        0.0030188645        0.0023247722
 Cs         0.0030484458       -0.0062890184        0.0045675417
 Cs        -0.0019602870       -0.0117548019       -0.0317490478
 Cs        -0.0069113920       -0.0040816528        0.0079591687
 Cs         0.0013295207       -0.0004220089        0.0050965848
 Cs         0.0019290001        0.0077177438       -0.0195652514
 Cs        -0.0066142913       -0.0053501713       -0.0069447219
 Cs        -0.0031975412       -0.0009543056       -0.0025314861
 Cs        -0.0030230014        0.0048766776       -0.0145964996
 Cs        -0.0038306041        0.0044307238        0.0037107506
 Cs        -0.0041668353       -0.0014029570       -0.0011458790
 Cs        -0.0562588592        0.0056057721       -0.0482894601
 Cs        -0.0010057824        0.0033316132       -0.0004734059
 Cs         0.0001721337        0.0072836558        0.0021772283
 Cs         0.0035464149       -0.0143410970       -0.0251664922
 Cs        -0.0066974065       -0.0005388281        0.0015602567
 Cs         0.0010208838        0.0015088532       -0.0012522351
 Cs         0.0034812406       -0.0022132684       -0.0187227851
 Cs         0.0004366507        0.0022200759       -0.0016981010
 Cs        -0.0026334113       -0.0020217231        0.0012635255
 Cs         0.0006599407        0.0014484995       -0.0063179304
 Br        -0.0021223382        0.0015810476        0.0379170312
 Br         0.0002688539       -0.0009831328       -0.0015940918
 Br        -0.0027733018        0.0023711431        0.0017213469
 Br         0.0104866071       -0.0028324396        0.0199156919
 Br         0.0047804812        0.0046519616        0.0017007975
 Br         0.0009327554       -0.0003947788       -0.0001593643
 Br         0.0201813786        0.0148096476        0.0118291664
 Br         0.0014440377       -0.0032232286       -0.0103011755
 Br         0.0014085502        0.0006414053       -0.0009126050
 Br         0.0008463867        0.0023603613        0.0250759543
 Br        -0.0003526931        0.0007586444       -0.0014413250
 Br         0.0014018905        0.0034422011        0.0017403162
 Br         0.0114828797        0.0007475093        0.0224849856
 Br         0.0037837705       -0.0003143828        0.0018998732
 Br         0.0024021594        0.0018910249        0.0026078980
 Br         0.0131370440       -0.0031241670        0.0484343871
 Br        -0.0012557855       -0.0013730589       -0.0076051627
 Br        -0.0010889895        0.0009836983       -0.0022491627
 Br         0.0265075745       -0.0130923800        0.1124624014
 Br        -0.0019383367        0.0007965733       -0.0008049136
 Br        -0.0011226185       -0.0022497786        0.0005070073
 Br         0.0090391331       -0.0028935116        0.0426520742
 Br         0.0009542847       -0.0001808809        0.0020771170
 Br         0.0027363556       -0.0023086268        0.0015766790
 Br         0.0073169872       -0.0020972160        0.0371650184
 Br         0.0043992420        0.0015191077        0.0000533860
 Br         0.0013808335        0.0036475970       -0.0015273783
 Br        -0.0007924829        0.0057375937       -0.0008386707
 Br        -0.0024075286       -0.0040498432       -0.0016497209
 Br         0.0030430270       -0.0032524079       -0.0471133161
 Br         0.0001274085       -0.0072411029       -0.0017050757
 Br         0.0000681389        0.0000463567        0.0012696482
 Br         0.0661242398       -0.0030261897       -0.0892309503
 Br         0.0013985752       -0.0000541349       -0.0014664226
 Br         0.0011955592        0.0049742025        0.0083991876
 Br         0.0199710824       -0.0277465511       -0.0419845950
 Br        -0.0055573568       -0.0021842793        0.0085420255
 Br        -0.0019160321       -0.0001790395       -0.0002262375
 Br         0.0292654293        0.0027203461       -0.0485409073
 Br        -0.0029287553       -0.0002082640       -0.0010448172
 Br         0.0020716897        0.0003349323       -0.0052105575
 Br         0.0111603540       -0.0071587650       -0.0370617105
 Br        -0.0029898578        0.0013628593        0.0003986029
 Br        -0.0019822328       -0.0040485981        0.0039066895
 Br         0.0096764272        0.0025206524       -0.0690222280
 Br        -0.0024255304        0.0036440138        0.0017074693
 Br         0.0074521080        0.0027785758       -0.0033983021
 Br         0.0074731026        0.0244648435       -0.1320568933
 Br        -0.0016213830        0.0023412928       -0.0002723165
 Br        -0.0061814811        0.0049015430        0.0009354895
 Br         0.0381201133       -0.0251101122       -0.0836989432
 Br        -0.0039351910       -0.0021277221        0.0005304162
 Br         0.0014396244        0.0004067778        0.0018932451
 Br        -0.0043426956        0.0048076636       -0.0425635872
 Br         0.0017765922        0.0012098231        0.0024059411
 Br        -0.0021142628       -0.0017298273       -0.0103100411
 Br         0.0007631827        0.0017164635       -0.0268507735
 Br         0.0003062922       -0.0002984648        0.0010525652
 Br         0.0013151327       -0.0025246565        0.0009711382
 Br        -0.0187903041        0.0068349255       -0.0365259942
 Br        -0.0166314688       -0.0076116863       -0.0061615550
 Br        -0.0067900023        0.0012559321       -0.0094916635
 Br        -0.0454795666        0.0153002101       -0.1118866955
 Br         0.0023721414       -0.0012342970        0.0010262480
 Br        -0.0001600398       -0.0009267188       -0.0018951961
 Br        -0.0163398145        0.0051222423       -0.0211521073
 Br        -0.0019936110       -0.0021052147       -0.0007864586
 Br        -0.0007750411       -0.0016040866        0.0023920171
 Br        -0.0338362859        0.0128333270       -0.0503183942
 Br        -0.0040368641        0.0003282629       -0.0187478334
 Br        -0.0097849455       -0.0139964617       -0.0025841889
 Br        -0.0238253584        0.0074374081       -0.1032218078
 Br        -0.0019372346       -0.0014275286        0.0036760969
 Br        -0.0027768515       -0.0023665471       -0.0068563734
 Br        -0.0249144306       -0.0117058941       -0.0800819755
 Br         0.0047963066       -0.0016503843        0.0030466161
 Br         0.0019682152       -0.0001511080       -0.0005064149
 Br        -0.0319967576       -0.0059994342       -0.0330587695
 Br        -0.0065196075        0.0013836736       -0.0033268941
 Br        -0.0081693930        0.0034353611       -0.0088066664
 Br        -0.0421122408        0.0175687086       -0.1729088135
 Br         0.0282790742        0.0003358401        0.1188319845
 Br        -0.0063040746        0.0110944146        0.0093123389
 Br         0.0075762423        0.0027820914        0.0025430682
 Br         0.0115198407       -0.0050741403        0.0220629723
 Br         0.0051989633        0.0006277556        0.0013998442
 Br         0.0049359645        0.0012755372        0.0102316430
 Br         0.0041428888       -0.0067594635        0.0311375841
 Br         0.0019707683        0.0004776067       -0.0012330472
 Br        -0.0034084760       -0.0018369176        0.0070124104
 Br         0.0328262054        0.0045115912        0.0950915059
 Br         0.0033284110        0.0005554779        0.0192138943
 Br        -0.0021833801        0.0017159274        0.0024461707
 Br        -0.0018377120       -0.0065992294        0.0175155917
 Br         0.0009666400       -0.0020991952        0.0025664215
 Br         0.0013546100       -0.0020723906        0.0019326137
 Br         0.0059395399       -0.0062142162        0.0406585490
 Br         0.0003982127        0.0003543516       -0.0008171184
 Br         0.0025710197       -0.0016017439       -0.0050363331
 Br         0.0575369540       -0.0152740897        0.1511399475
 Br        -0.0008450160        0.0036291273        0.0010721225
 Br        -0.0045994761        0.0043086434        0.0128089452
 Br         0.0005964481       -0.0002278521        0.0821755874
 Br         0.0002811052       -0.0032996151        0.0010188483
 Br         0.0062962772       -0.0017731916        0.0044437179
 Br         0.0046592535        0.0056932715        0.0287745433
 Br         0.0037349033       -0.0011339197        0.0006644917
 Br         0.0004371971        0.0002306275       -0.0014904089
 Br         0.0033242819        0.0055231327        0.0010891125
 Br         0.0069704104        0.0057974351        0.0047559848
 Br        -0.0269612236       -0.0043134510       -0.0454381930
 Br        -0.0032792063        0.0002048996       -0.0002421892
 Br        -0.0018770614       -0.0006079629        0.0081158389
 Br        -0.0344948621       -0.0246664392       -0.0155876271
 Br        -0.0006609801       -0.0051985666       -0.0021502913
 Br         0.0006813244        0.0015671558        0.0005089785
 Br        -0.0256950405        0.0016375805       -0.0394774672
 Br         0.0053664911       -0.0002754253        0.0009941227
 Br        -0.0075315263       -0.0004155148        0.0009091820
 Br        -0.0141239173       -0.0099369993       -0.0113276821
 Br        -0.0013633133       -0.0001414917       -0.0004342843
 Br         0.0004649305       -0.0009788110        0.0037060755
 Br        -0.0458570038        0.0113991603       -0.1175115664
 Br        -0.0002523504        0.0005576811        0.0006918480
 Br        -0.0017267668       -0.0022082622        0.0026068027
 Br        -0.0216938141       -0.0038808199       -0.0373522745
 Br         0.0001384604       -0.0021503928       -0.0001357252
 Br         0.0002876387       -0.0008829563        0.0003011403
 Br        -0.0295412166       -0.0009630364       -0.0300772182
 Br         0.0018719609        0.0001865305        0.0003579629
 Br         0.0020657408        0.0008316945        0.0058914057
 Br        -0.0388052222        0.0172976307       -0.1082710634
 Br        -0.0016003520       -0.0038645073        0.0018524909
 Br        -0.0115502932       -0.0179071882       -0.0098703421
 Br        -0.0418168755        0.0036274771       -0.0612856772
 Br         0.0058739588       -0.0027167783        0.0255573709
 Br        -0.0032762084       -0.0001653892        0.0054500285
 Br         0.0006603466       -0.0034894957        0.0037653808
 Br        -0.0029122025        0.0015723096        0.0092473733
 Br        -0.0010388212       -0.0045085075       -0.0028214363
 Br         0.0006402063       -0.0007886208        0.0014398494
 Br        -0.0031529925        0.0211842787        0.0484554593
 Br        -0.0020337904       -0.0033878465        0.0029972175
 Br         0.0017340939        0.0016988496       -0.0035080247
 Br        -0.0034845031        0.0050342557        0.0128445035
 Br         0.0002382807       -0.0040892277        0.0005652298
 Br         0.0023186926       -0.0013055289       -0.0024433343
 Br         0.0350214691       -0.0031950359        0.1217443959
 Br        -0.0003631131        0.0000367176       -0.0000511800
 Br        -0.0002359467       -0.0013294640        0.0007398039
 Br        -0.0454257968        0.0866473467        0.0805828715
 Br         0.0008358514       -0.0055708862       -0.0030521831
 Br         0.0035579473       -0.0078686082       -0.0001907788
 Br        -0.0151435799        0.0298475419        0.0457857306
 Br         0.0049660963        0.0001683189       -0.0010856585
 Br         0.0039860669        0.0003366080       -0.0016985507
 Br         0.0351918548       -0.0134030763        0.1095422398
 Br        -0.0000287141       -0.0011452744       -0.0043746721
 Br         0.0034349749       -0.0042481903       -0.0005120579
 Br        -0.0001427614        0.0170601494        0.0586140565
 Br        -0.0024119609       -0.0031742929        0.0033387336
 Br         0.0017890201        0.0010939579       -0.0002607160
 Br         0.0212285923       -0.0029157167        0.0631826197
 Br         0.0045788051       -0.0009621951        0.0043186127
 Br        -0.0021839657        0.0030928105       -0.0020660028
 Br        -0.0082539573        0.0017036137        0.0227478020
 Br        -0.0043074696        0.0007733317       -0.0004730947
 Br        -0.0052777193       -0.0010872565       -0.0003194888
 Br         0.0039411246        0.0028964206        0.0234632873
 Br         0.0043197403       -0.0017321577        0.0018771575
 Br         0.0014807474        0.0032356980        0.0006091054
 Br         0.0277281802       -0.0231656250        0.0747609175
 Br         0.0008931497       -0.0012294526        0.0005676412
 Br         0.0040242622        0.0099996154        0.0007547490
 Br         0.0487607175       -0.0200203539        0.1351499355
 Br        -0.0015585023        0.0001172768        0.0006630444
 Br         0.0006538912       -0.0007215703       -0.0056726960
 Br         0.0119041680       -0.0040675837        0.0703765530
 Br        -0.0003994020       -0.0008317836       -0.0012014359
 Br         0.0012521197       -0.0023421126        0.0004431268
 Br        -0.0279079999       -0.0094823732        0.0509969107
 Br         0.0009167605        0.0054448244        0.0012295870
 Br         0.0045488697        0.0012251377       -0.0004032856
 Br         0.0079749519       -0.0042450246        0.0246780005
 Br        -0.0007311539       -0.0013904116       -0.0044231655
 Br        -0.0007079003       -0.0012308301       -0.0115236250
 Br         0.0018103492       -0.0030759788        0.0056542754
 Br        -0.0042213976        0.0029720766       -0.0029922868
 Br        -0.0026877438        0.0042909808       -0.0005521802
 Br         0.0009644673       -0.0009389367       -0.0026034609
 Br         0.0037613524        0.0007234181       -0.0051073437
 Br         0.0802308281        0.0082064323       -0.1125316033
 Br        -0.0018864645        0.0000086908       -0.0023555990
 Br        -0.0026417045       -0.0021337016       -0.0015414107
 Br         0.0339260549        0.0149138665       -0.0763998527
 Br         0.0031996520       -0.0064866085       -0.0071006363
 Br         0.0038426265       -0.0029710962       -0.0036370182
 Br         0.0699912413        0.0353941124       -0.1274501643
 Br        -0.0035330391       -0.0061347877       -0.0004091358
 Br        -0.0010274500       -0.0006463108        0.0003179576
 Br        -0.0021731108        0.0180979070       -0.1764492715
 Br        -0.0002327426       -0.0005921271       -0.0015762412
 Br        -0.0028995441       -0.0025416194        0.0003334795
 Br        -0.0082920598        0.0014277167       -0.0736387274
 Br         0.0135050109       -0.0043501173       -0.0092852527
 Br         0.0054067553       -0.0045514169       -0.0077040039
 Br         0.0663944129       -0.0257953293       -0.1365406445
 Br        -0.0012081964       -0.0022851896        0.0008037657
 Br        -0.0043230775       -0.0020850918        0.0042281914
 Br         0.0755816618       -0.0057608093       -0.0768189169
 Br        -0.0049618260       -0.0021243972        0.0005440427
 Br        -0.0009585139       -0.0037494141       -0.0084389569
 Br         0.0241198217        0.0007489908       -0.0296128207
 Br         0.0015436514        0.0008696623       -0.0038549277
 Br         0.0039999175       -0.0061350293       -0.0041635577
 Br         0.0391452696        0.0011156673       -0.0751205253
 Br         0.0126806402       -0.0042354198        0.0189978227
 Br         0.0011111181        0.0031150396        0.0028585903
 Br        -0.0045645384        0.0025127978        0.0033623872
 Br        -0.0041239337        0.0085583396        0.0111316931
 Br        -0.0029881130        0.0057212175        0.0049822386
 Br        -0.0035958446       -0.0029288092        0.0003461560
 Br        -0.0078860800        0.0152950267        0.0232344690
 Br         0.0009991047        0.0052715567       -0.0017331831