
                                 *****************
                                 * O   R   C   A *
                                 *****************

           --- An Ab Initio, DFT and Semiempirical electronic structure package ---

                  #######################################################
                  #                        -***-                        #
                  #  Department of molecular theory and spectroscopy    #
                  #              Directorship: Frank Neese              #
                  # Max Planck Institute for Chemical Energy Conversion #
                  #                  D-45470 Muelheim/Ruhr              #
                  #                       Germany                       #
                  #                                                     #
                  #                  All rights reserved                #
                  #                        -***-                        #
                  #######################################################


                         Program Version 4.0.1.2 - RELEASE -


 With contributions from (in alphabetic order):
   Daniel Aravena         : Magnetic Properties
   Michael Atanasov       : Ab Initio Ligand Field Theory
   Ute Becker             : Parallelization
   Martin Brehm           : Molecular dynamics
   Dmytro Bykov           : SCF Hessian
   Vijay G. Chilkuri      : MRCI spin determinant printing
   Dipayan Datta          : RHF DLPNO-CCSD density
   Achintya Kumar Dutta   : EOM-CC, STEOM-CC
   Dmitry Ganyushin       : Spin-Orbit,Spin-Spin,Magnetic field MRCI
   Yang Guo               : DLPNO-NEVPT2, CIM, IAO-localization
   Andreas Hansen         : Spin unrestricted coupled pair/coupled cluster methods
   Lee Huntington         : MR-EOM, pCC
   Robert Izsak           : Overlap fitted RIJCOSX, COSX-SCS-MP3, EOM
   Christian Kollmar      : KDIIS, OOCD, Brueckner-CCSD(T), CCSD density
   Simone Kossmann        : Meta GGA functionals, TD-DFT gradient, OOMP2, MP2 Hessian
   Martin Krupicka        : AUTO-CI
   Dagmar Lenk            : GEPOL surface
   Dimitrios Liakos       : Extrapolation schemes; parallel MDCI
   Dimitrios Manganas     : ROCIS; embedding schemes
   Dimitrios Pantazis     : SARC Basis sets
   Taras Petrenko         : DFT Hessian,TD-DFT gradient, ASA, ECA, R-Raman, ABS, FL, XAS/XES, NRVS
   Peter Pinski           : DLPNO-MP2
   Christoph Reimann      : Effective Core Potentials
   Marius Retegan         : Local ZFS, SOC
   Christoph Riplinger    : Optimizer, TS searches, QM/MM, DLPNO-CCSD(T), (RO)-DLPNO pert. Triples
   Tobias Risthaus        : Range-separated hybrids, TD-DFT gradient, RPA, STAB
   Michael Roemelt        : Restricted open shell CIS
   Masaaki Saitow         : Open-shell DLPNO
   Barbara Sandhoefer     : DKH picture change effects
   Kantharuban Sivalingam : CASSCF convergence, NEVPT2, FIC-MRCI
   Georgi Stoychev        : AutoAux
   Boris Wezisla          : Elementary symmetry handling
   Frank Wennmohs         : Technical directorship


 We gratefully acknowledge several colleagues who have allowed us to
 interface, adapt or use parts of their codes:
   Stefan Grimme, W. Hujo, H. Kruse,             : VdW corrections, initial TS optimization,
                  C. Bannwarth                     DFT functionals, gCP, sTDA/sTD-DF
   Ed Valeev                                     : LibInt (2-el integral package), F12 methods
   Garnet Chan, S. Sharma, J. Yang, R. Olivares  : DMRG
   Ulf Ekstrom                                   : XCFun DFT Library
   Mihaly Kallay                                 : mrcc  (arbitrary order and MRCC methods)
   Andreas Klamt, Michael Diedenhofen            : otool_cosmo (COSMO solvation model)
   Jiri Pittner, Ondrej Demel                    : Mk-CCSD
   Frank Weinhold                                : gennbo (NPA and NBO analysis)
   Christopher J. Cramer and Donald G. Truhlar   : smd solvation model


 Your calculation uses the libint2 library for the computation of 2-el integrals
 For citations please refer to: http://libint.valeyev.net

 This ORCA versions uses:
   CBLAS   interface :  Fast vector & matrix operations
   LAPACKE interface :  Fast linear algebra routines
   SCALAPACK package :  Parallel linear algebra routines


Your calculation utilizes the basis: SVP 

================================================================================
                                        WARNINGS
                       Please study these warnings very carefully!
================================================================================

Warning: TCutStore was < 0. Adjusted to Thresh (uncritical)

WARNING: Geometry Optimization
  ===> : Switching off AutoStart
         For restart on a previous wavefunction, please use MOREAD

INFO   : the flag for use of LIBINT has been found!

================================================================================
                                       INPUT FILE
================================================================================
NAME = ORCAjob.in
|  1> ! RKS B3LYP SVP Opt NumFreq TightSCF SmallPrint
|  2> 
|  3> %scf print[p_mos] 1     end
|  4> 
|  5> * xyz 0 1
|  6>          C   -1.48746   -0.02867   -0.00006 
|  7>          O    0.37634    0.02867   -0.00006 
|  8>          H   -1.81891   -1.06706   -0.00006 
|  9>          H   -1.86647    0.47370    0.88993 
| 10>          H   -1.86647    0.47370   -0.89004 
| 11>          H    0.75672   -0.95001   -0.00006 
| 12> *
| 13> 
| 14> 
| 15>                          ****END OF INPUT****
================================================================================

                       *****************************
                       * Geometry Optimization Run *
                       *****************************

Geometry optimization settings:
Update method            Update   .... BFGS
Choice of coordinates    CoordSys .... Redundant Internals
Initial Hessian          InHess   .... Almoef's Model

Convergence Tolerances:
Energy Change            TolE     ....  5.0000e-06 Eh
Max. Gradient            TolMAXG  ....  3.0000e-04 Eh/bohr
RMS Gradient             TolRMSG  ....  1.0000e-04 Eh/bohr
Max. Displacement        TolMAXD  ....  4.0000e-03 bohr
RMS Displacement         TolRMSD  ....  2.0000e-03 bohr

------------------------------------------------------------------------------
                        ORCA OPTIMIZATION COORDINATE SETUP
------------------------------------------------------------------------------

The optimization will be done in new redundant internal coordinates
Making redundant internal coordinates   ...  (new redundants) done
Evaluating the initial hessian          ...  (Almloef) done
Evaluating the coordinates              ...  done
Calculating the B-matrix                .... done
Calculating the G-matrix                .... done
Diagonalizing the G-matrix              .... done
The first mode is                       ....    3
The number of degrees of freedom        ....   12

    -----------------------------------------------------------------
                    Redundant Internal Coordinates


    -----------------------------------------------------------------
         Definition                    Initial Value    Approx d2E/dq
    -----------------------------------------------------------------
      1. B(O   1,C   0)                  1.8647         0.097848   
      2. B(H   2,C   0)                  1.0900         0.360092   
      3. B(H   3,C   0)                  1.0900         0.360096   
      4. B(H   4,C   0)                  1.0900         0.360107   
      5. B(H   5,O   1)                  1.0500         0.373572   
      6. A(O   1,C   0,H   3)          109.4739         0.261337   
      7. A(O   1,C   0,H   2)          109.4650         0.261336   
      8. A(O   1,C   0,H   4)          109.4741         0.261338   
      9. A(H   2,C   0,H   4)          109.4712         0.290839   
     10. A(H   3,C   0,H   4)          109.4721         0.290840   
     11. A(H   2,C   0,H   3)          109.4710         0.290838   
     12. A(C   0,O   1,H   5)          109.4773         0.260751   
     13. D(H   5,O   1,C   0,H   3)    119.9976         0.002063   
     14. D(H   5,O   1,C   0,H   4)   -119.9979         0.002063   
     15. D(H   5,O   1,C   0,H   2)      0.0000         0.002063   
    -----------------------------------------------------------------

Number of atoms                         .... 6
Number of degrees of freedom            .... 15

         *************************************************************
         *                GEOMETRY OPTIMIZATION CYCLE   1            *
         *************************************************************
---------------------------------
CARTESIAN COORDINATES (ANGSTROEM)
---------------------------------
  C     -1.487460   -0.028670   -0.000060
  O      0.376340    0.028670   -0.000060
  H     -1.818910   -1.067060   -0.000060
  H     -1.866470    0.473700    0.889930
  H     -1.866470    0.473700   -0.890040
  H      0.756720   -0.950010   -0.000060

----------------------------
CARTESIAN COORDINATES (A.U.)
----------------------------
  NO LB      ZA    FRAG     MASS         X           Y           Z
   0 C     6.0000    0    12.011   -2.810892   -0.054178   -0.000113
   1 O     8.0000    0    15.999    0.711180    0.054178   -0.000113
   2 H     1.0000    0     1.008   -3.437242   -2.016451   -0.000113
   3 H     1.0000    0     1.008   -3.527117    0.895163    1.681724
   4 H     1.0000    0     1.008   -3.527117    0.895163   -1.681932
   5 H     1.0000    0     1.008    1.429994   -1.795259   -0.000113

--------------------------------
INTERNAL COORDINATES (ANGSTROEM)
--------------------------------
 C      0   0   0     0.000000000000     0.00000000     0.00000000
 O      1   0   0     1.864681826908     0.00000000     0.00000000
 H      1   2   0     1.090005914938   109.46503310     0.00000000
 H      1   2   3     1.090002934446   109.47391326   119.99764495
 H      1   2   3     1.089994769437   109.47406502   240.00207630
 H      2   1   3     1.050001660380   109.47727521     0.00000000

---------------------------
INTERNAL COORDINATES (A.U.)
---------------------------
 C      0   0   0     0.000000000000     0.00000000     0.00000000
 O      1   0   0     3.523737979756     0.00000000     0.00000000
 H      1   2   0     2.059812663587   109.46503310     0.00000000
 H      1   2   3     2.059807031273   109.47391326   119.99764495
 H      1   2   3     2.059791601643   109.47406502   240.00207630
 H      2   1   3     1.984215578280   109.47727521     0.00000000

---------------------
BASIS SET INFORMATION
---------------------
There are 3 groups of distinct atoms

 Group   1 Type C   : 7s4p1d contracted to 3s2p1d pattern {511/31/1}
 Group   2 Type O   : 7s4p1d contracted to 3s2p1d pattern {511/31/1}
 Group   3 Type H   : 4s1p contracted to 2s1p pattern {31/1}

Atom   0C    basis set group =>   1
Atom   1O    basis set group =>   2
Atom   2H    basis set group =>   3
Atom   3H    basis set group =>   3
Atom   4H    basis set group =>   3
Atom   5H    basis set group =>   3
------------------------------------------------------------------------------
                           ORCA GTO INTEGRAL CALCULATION
------------------------------------------------------------------------------

                         BASIS SET STATISTICS AND STARTUP INFO

 # of primitive gaussian shells          ...   44
 # of primitive gaussian functions       ...   76
 # of contracted shells                  ...   24
 # of contracted basis functions         ...   48
 Highest angular momentum                ...    2
 Maximum contraction depth               ...    5
 Integral package used                   ... LIBINT
 Integral threshhold            Thresh   ...  2.500e-11
 Primitive cut-off              TCut     ...  2.500e-12


------------------------------ INTEGRAL EVALUATION ----------------------------


 * One electron integrals 
 Pre-screening matrix                    ... done
 Shell pair data                         ... done (   0.000 sec)

-------------------------------------------------------------------------------
                                 ORCA SCF
-------------------------------------------------------------------------------

------------
SCF SETTINGS
------------
Hamiltonian:
 Density Functional     Method          .... DFT(GTOs)
 Exchange Functional    Exchange        .... B88
   X-Alpha parameter    XAlpha          ....  0.666667
   Becke's b parameter  XBeta           ....  0.004200
 Correlation Functional Correlation     .... LYP
 LDA part of GGA corr.  LDAOpt          .... VWN-5
 Gradients option       PostSCFGGA      .... off
 Hybrid DFT is turned on
   Fraction HF Exchange ScalHFX         ....  0.200000
   Scaling of DF-GGA-X  ScalDFX         ....  0.720000
   Scaling of DF-GGA-C  ScalDFC         ....  0.810000
   Scaling of DF-LDA-C  ScalLDAC        ....  1.000000
   Perturbative correction              ....  0.000000
   NL short-range parameter             ....  4.800000


General Settings:
 Integral files         IntName         .... ORCAjob
 Hartree-Fock type      HFTyp           .... RHF
 Total Charge           Charge          ....    0
 Multiplicity           Mult            ....    1
 Number of Electrons    NEL             ....   18
 Basis Dimension        Dim             ....   48
 Nuclear Repulsion      ENuc            ....     34.3143360421 Eh

Convergence Acceleration:
 DIIS                   CNVDIIS         .... on
   Start iteration      DIISMaxIt       ....    12
   Startup error        DIISStart       ....  0.200000
   # of expansion vecs  DIISMaxEq       ....     5
   Bias factor          DIISBfac        ....   1.050
   Max. coefficient     DIISMaxC        ....  10.000
 Newton-Raphson         CNVNR           .... off
 SOSCF                  CNVSOSCF        .... on
   Start iteration      SOSCFMaxIt      ....   150
   Startup grad/error   SOSCFStart      ....  0.003300
 Level Shifting         CNVShift        .... on
   Level shift para.    LevelShift      ....    0.2500
   Turn off err/grad.   ShiftErr        ....    0.0010
 Zerner damping         CNVZerner       .... off
 Static damping         CNVDamp         .... on
   Fraction old density DampFac         ....    0.7000
   Max. Damping (<1)    DampMax         ....    0.9800
   Min. Damping (>=0)   DampMin         ....    0.0000
   Turn off err/grad.   DampErr         ....    0.1000
 Fernandez-Rico         CNVRico         .... off

SCF Procedure:
 Maximum # iterations   MaxIter         ....   125
 SCF integral mode      SCFMode         .... Direct
   Integral package                     .... LIBINT
 Reset frequeny         DirectResetFreq ....    20
 Integral Threshold     Thresh          ....  2.500e-11 Eh
 Primitive CutOff       TCut            ....  2.500e-12 Eh

Convergence Tolerance:
 Convergence Check Mode ConvCheckMode   .... Total+1el-Energy
 Convergence forced     ConvForced      .... 0
 Energy Change          TolE            ....  1.000e-08 Eh
 1-El. energy change                    ....  1.000e-05 Eh
 Orbital Gradient       TolG            ....  1.000e-05
 Orbital Rotation angle TolX            ....  1.000e-05
 DIIS Error             TolErr          ....  5.000e-07


Diagonalization of the overlap matrix:
Smallest eigenvalue                        ... 1.511e-02
Time for diagonalization                   ...    0.007 sec
Threshold for overlap eigenvalues          ... 1.000e-08
Number of eigenvalues below threshold      ... 0
Time for construction of square roots      ...    0.000 sec
Total time needed                          ...    0.007 sec

-------------------
DFT GRID GENERATION
-------------------

General Integration Accuracy     IntAcc      ...  4.340
Radial Grid Type                 RadialGrid  ... Gauss-Chebyshev
Angular Grid (max. acc.)         AngularGrid ... Lebedev-110
Angular grid pruning method      GridPruning ... 3 (G Style)
Weight generation scheme         WeightScheme... Becke
Basis function cutoff            BFCut       ...    1.0000e-11
Integration weight cutoff        WCut        ...    1.0000e-14
Grids for H and He will be reduced by one unit

# of grid points (after initial pruning)     ...   6548 (   0.0 sec)
# of grid points (after weights+screening)   ...   6396 (   0.0 sec)
nearest neighbour list constructed           ...    0.0 sec
Grid point re-assignment to atoms done       ...    0.0 sec
Grid point division into batches done        ...    0.0 sec
Reduced shell lists constructed in    0.0 sec

Total number of grid points                  ...     6396
Total number of batches                      ...      103
Average number of points per batch           ...       62
Average number of grid points per atom       ...     1066
Average number of shells per batch           ...    21.26 (88.58%)
Average number of basis functions per batch  ...    42.64 (88.84%)
Average number of large shells per batch     ...    19.04 (89.55%)
Average number of large basis fcns per batch ...    37.19 (87.22%)
Maximum spatial batch extension              ...  19.49, 18.43, 25.60 au
Average spatial batch extension              ...   4.80,  4.62,  4.89 au

Time for grid setup =    0.055 sec

------------------------------
INITIAL GUESS: MODEL POTENTIAL
------------------------------
Loading Hartree-Fock densities                     ... done
Calculating cut-offs                               ... done
Setting up the integral package                    ... done
Initializing the effective Hamiltonian             ... done
Starting the Coulomb interaction                   ... done (   0.0 sec)
Reading the grid                                   ... done
Mapping shells                                     ... done
Starting the XC term evaluation                    ... done (   0.0 sec)
  promolecular density results
     # of electrons  =     17.991637641
     EX              =    -14.404742934
     EC              =     -0.577512120
     EX+EC           =    -14.982255055
Transforming the Hamiltonian                       ... done (   0.0 sec)
Diagonalizing the Hamiltonian                      ... done (   0.0 sec)
Back transforming the eigenvectors                 ... done (   0.0 sec)
Now organizing SCF variables                       ... done
                      ------------------
                      INITIAL GUESS DONE (   0.2 sec)
                      ------------------
--------------
SCF ITERATIONS
--------------
ITER       Energy         Delta-E        Max-DP      RMS-DP      [F,P]     Damp
               ***  Starting incremental Fock matrix formation  ***
  0   -115.4120903313   0.000000000000 0.08130200  0.00479210  0.2636462 0.7000
  1   -115.4553690319  -0.043278700608 0.04655786  0.00284596  0.0972762 0.7000
                               ***Turning on DIIS***
  2   -115.4687001177  -0.013331085819 0.05540649  0.00385435  0.0339941 0.0000
  3   -115.4945573339  -0.025857216164 0.03492645  0.00217201  0.0555497 0.0000
  4   -115.4982280984  -0.003670764507 0.01103963  0.00065848  0.0247682 0.0000
                      *** Initiating the SOSCF procedure ***
                           *** Shutting down DIIS ***
                      *** Re-Reading the Fockian *** 
                      *** Removing any level shift *** 
ITER      Energy       Delta-E        Grad      Rot      Max-DP    RMS-DP
  5   -115.49890909  -0.0006809945  0.000606  0.000606  0.001163  0.000112
               *** Restarting incremental Fock matrix formation ***
  6   -115.49892289  -0.0000137934  0.000396  0.001370  0.002197  0.000094
  7   -115.49891834   0.0000045494  0.001072  0.001118  0.001307  0.000065
  8   -115.49892456  -0.0000062203  0.000038  0.000055  0.000129  0.000008
  9   -115.49892456   0.0000000021  0.000040  0.000029  0.000072  0.000004
                  ***Gradient check signals convergence***
              ***Rediagonalizing the Fockian in SOSCF/NRSCF***

               *****************************************************
               *                     SUCCESS                       *
               *           SCF CONVERGED AFTER  10 CYCLES          *
               *****************************************************

Setting up the final grid:

General Integration Accuracy     IntAcc      ...  4.670
Radial Grid Type                 RadialGrid  ... Gauss-Chebyshev
Angular Grid (max. acc.)         AngularGrid ... Lebedev-302
Angular grid pruning method      GridPruning ... 3 (G Style)
Weight generation scheme         WeightScheme... Becke
Basis function cutoff            BFCut       ...    1.0000e-11
Integration weight cutoff        WCut        ...    1.0000e-14
Grids for H and He will be reduced by one unit

# of grid points (after initial pruning)     ...  26000 (   0.0 sec)
# of grid points (after weights+screening)   ...  25238 (   0.0 sec)
nearest neighbour list constructed           ...    0.0 sec
Grid point re-assignment to atoms done       ...    0.0 sec
Grid point division into batches done        ...    0.1 sec
Reduced shell lists constructed in    0.2 sec

Total number of grid points                  ...    25238
Total number of batches                      ...      398
Average number of points per batch           ...       63
Average number of grid points per atom       ...     4206
Average number of shells per batch           ...    19.63 (81.81%)
Average number of basis functions per batch  ...    39.07 (81.39%)
Average number of large shells per batch     ...    16.94 (86.29%)
Average number of large basis fcns per batch ...    32.82 (84.00%)
Maximum spatial batch extension              ...  18.34, 20.64, 18.89 au
Average spatial batch extension              ...   3.04,  3.04,  3.01 au

Final grid set up in    0.2 sec
Final integration                            ... done (   0.2 sec)
Change in XC energy                          ...     0.000010277
Integrated number of electrons               ...    18.000006960
Previous integrated no of electrons          ...    17.997312526

----------------
TOTAL SCF ENERGY
----------------

Total Energy       :         -115.49891430 Eh           -3142.88524 eV

Components:
Nuclear Repulsion  :           34.31433604 Eh             933.74055 eV
Electronic Energy  :         -149.81325034 Eh           -4076.62579 eV
One Electron Energy:         -225.21934832 Eh           -6128.53004 eV
Two Electron Energy:           75.40609798 Eh            2051.90424 eV

Virial components:
Potential Energy   :         -229.63584017 Eh           -6248.70889 eV
Kinetic Energy     :          114.13692587 Eh            3105.82365 eV
Virial Ratio       :            2.01193293


DFT components:
N(Alpha)           :        9.000003480149 electrons
N(Beta)            :        9.000003480149 electrons
N(Total)           :       18.000006960298 electrons
E(X)               :      -11.653818577076 Eh       
E(C)               :       -0.691854880240 Eh       
E(XC)              :      -12.345673457316 Eh       

---------------
SCF CONVERGENCE
---------------

  Last Energy change         ...   -1.8451e-08  Tolerance :   1.0000e-08
  Last MAX-Density change    ...    3.3990e-06  Tolerance :   1.0000e-07
  Last RMS-Density change    ...    2.2883e-07  Tolerance :   5.0000e-09
  Last Orbital Gradient      ...    1.0512e-06  Tolerance :   1.0000e-05
  Last Orbital Rotation      ...    2.9383e-06  Tolerance :   1.0000e-05

             **** THE GBW FILE WAS UPDATED (ORCAjob.gbw) ****
             **** DENSITY FILE WAS UPDATED (ORCAjob.scfp.tmp) ****
             **** ENERGY FILE WAS UPDATED (ORCAjob.en.tmp) ****
----------------
ORBITAL ENERGIES
----------------

  NO   OCC          E(Eh)            E(eV) 
   0   2.0000     -19.121995      -520.3359 
   1   2.0000     -10.249358      -278.8992 
   2   2.0000      -0.892700       -24.2916 
   3   2.0000      -0.686701       -18.6861 
   4   2.0000      -0.435156       -11.8412 
   5   2.0000      -0.423159       -11.5147 
   6   2.0000      -0.400371       -10.8946 
   7   2.0000      -0.309503        -8.4220 
   8   2.0000      -0.255327        -6.9478 
   9   0.0000      -0.021253        -0.5783 
  10   0.0000       0.057236         1.5575 
  11   0.0000       0.100868         2.7448 
  12   0.0000       0.132867         3.6155 
  13   0.0000       0.135097         3.6762 
  14   0.0000       0.422893        11.5075 
  15   0.0000       0.431687        11.7468 
  16   0.0000       0.472920        12.8688 
  17   0.0000       0.575343        15.6559 
  18   0.0000       0.636777        17.3276 
  19   0.0000       0.659275        17.9398 
  20   0.0000       0.660137        17.9632 
  21   0.0000       0.690379        18.7862 
  22   0.0000       0.955922        26.0120 
  23   0.0000       0.961234        26.1565 
  24   0.0000       1.056272        28.7426 
  25   0.0000       1.184094        32.2208 
  26   0.0000       1.224078        33.3089 
  27   0.0000       1.270167        34.5630 
  28   0.0000       1.464597        39.8537 
  29   0.0000       1.471713        40.0473 
  30   0.0000       1.510996        41.1163 
  31   0.0000       1.694694        46.1150 
  32   0.0000       1.722485        46.8712 
  33   0.0000       1.850486        50.3543 
  34   0.0000       1.925547        52.3968 
  35   0.0000       1.933858        52.6230 
  36   0.0000       2.061895        56.1070 
  37   0.0000       2.157516        58.7090 
  38   0.0000       2.406629        65.4877 
  39   0.0000       2.406844        65.4936 
  40   0.0000       2.618402        71.2503 
  41   0.0000       2.711102        73.7728 
  42   0.0000       2.840271        77.2877 
  43   0.0000       2.885547        78.5197 
  44   0.0000       2.888302        78.5947 
  45   0.0000       2.932370        79.7938 
  46   0.0000       2.959847        80.5415 
  47   0.0000       3.641832        99.0993 
------------------
MOLECULAR ORBITALS
------------------
                      0         1         2         3         4         5   
                 -19.12199 -10.24936  -0.89270  -0.68670  -0.43516  -0.42316
                   2.00000   2.00000   2.00000   2.00000   2.00000   2.00000
                  --------  --------  --------  --------  --------  --------
  0C   1s         0.000005  0.988382 -0.049757  0.247736 -0.000125 -0.000001
  0C   2s         0.001564  0.048408  0.093681 -0.504636  0.000543  0.000001
  0C   3s        -0.008034 -0.035379  0.032677 -0.119765 -0.028931  0.000005
  0C   1pz        0.000000 -0.000000 -0.000000  0.000001  0.000018  0.458075
  0C   1px       -0.000361 -0.001828  0.040194  0.076771 -0.071301  0.000008
  0C   1py        0.000025 -0.000133 -0.001610  0.003789 -0.383052  0.000008
  0C   2pz       -0.000000  0.000000  0.000000 -0.000000  0.000006  0.169579
  0C   2px       -0.003194  0.001470  0.020115  0.017303 -0.039602  0.000004
  0C   2py       -0.000005  0.000058 -0.008226  0.000589 -0.148921  0.000005
  0C   1dz2       0.000315  0.000878 -0.004602 -0.001275 -0.009519  0.000000
  0C   1dxz       0.000000  0.000000 -0.000000 -0.000000 -0.000001 -0.014280
  0C   1dyz       0.000000 -0.000000  0.000000  0.000000  0.000001  0.015786
  0C   1dx2y2    -0.000539 -0.001532  0.006900  0.002539 -0.012797  0.000001
  0C   1dxy      -0.000000 -0.000118 -0.000624  0.000072  0.008312  0.000000
  1O   1s         0.989032 -0.000006  0.282372  0.053920 -0.044577  0.000003
  1O   2s        -0.038986 -0.000003  0.568575  0.116338 -0.087791  0.000005
  1O   3s         0.019023  0.001784  0.359388  0.063319 -0.133571  0.000009
  1O   1pz        0.000000  0.000000 -0.000000  0.000000  0.000003  0.083857
  1O   1px        0.000774 -0.000288 -0.006526  0.067979  0.124748 -0.000013
  1O   1py        0.001909 -0.000059 -0.094692 -0.036925 -0.237729  0.000017
  1O   2pz        0.000000 -0.000000 -0.000000  0.000000  0.000002  0.056505
  1O   2px       -0.003445 -0.000256 -0.016147  0.043071  0.061317 -0.000007
  1O   2py       -0.001013  0.000626 -0.018657 -0.006102 -0.124360  0.000008
  1O   1dz2       0.000172  0.000316 -0.007480  0.000610 -0.002048  0.000000
  1O   1dxz      -0.000000  0.000000  0.000000 -0.000000 -0.000000 -0.004131
  1O   1dyz      -0.000000  0.000000  0.000000 -0.000000 -0.000000 -0.001887
  1O   1dx2y2     0.000640 -0.000300  0.000303 -0.004183 -0.009410  0.000001
  1O   1dxy       0.000475 -0.000036 -0.001893 -0.002294  0.000662  0.000000
  2H   1s         0.000439 -0.003498  0.022242 -0.200209  0.321294 -0.000008
  2H   2s         0.001504  0.007598 -0.000932 -0.043812  0.129158 -0.000003
  2H   1pz        0.000000 -0.000000 -0.000000  0.000000  0.000001  0.014191
  2H   1px        0.000473 -0.000830  0.001149 -0.004427  0.004488  0.000000
  2H   1py       -0.000035 -0.002441  0.003548 -0.021766  0.009188 -0.000000
  3H   1s         0.000558 -0.003557  0.022135 -0.196850 -0.123220  0.312531
  3H   2s         0.000925  0.007844  0.005693 -0.040194 -0.046914  0.124233
  3H   1pz        0.000076  0.002067 -0.003494  0.018659  0.006868 -0.003964
  3H   1px        0.000400 -0.000900  0.001403 -0.004819 -0.004109  0.005318
  3H   1py        0.000064  0.001157 -0.001473  0.010672 -0.006874 -0.010187
  4H   1s         0.000558 -0.003557  0.022135 -0.196854 -0.123245 -0.312528
  4H   2s         0.000925  0.007845  0.005694 -0.040195 -0.046923 -0.124231
  4H   1pz       -0.000076 -0.002067  0.003494 -0.018660 -0.006868 -0.003963
  4H   1px        0.000400 -0.000900  0.001403 -0.004819 -0.004110 -0.005318
  4H   1py        0.000064  0.001157 -0.001473  0.010672 -0.006873  0.010187
  5H   1s         0.000574  0.000073  0.185097  0.070146  0.186123 -0.000015
  5H   2s        -0.002248  0.001270  0.014783  0.010097  0.073196 -0.000006
  5H   1pz       -0.000000 -0.000000  0.000000 -0.000000  0.000000  0.003061
  5H   1px       -0.000429 -0.000591 -0.010884 -0.002688 -0.006905  0.000000
  5H   1py        0.002239  0.000107  0.026726  0.009041  0.013175 -0.000001
                      6         7         8         9        10        11   
                  -0.40037  -0.30950  -0.25533  -0.02125   0.05724   0.10087
                   2.00000   2.00000   2.00000   0.00000   0.00000   0.00000
                  --------  --------  --------  --------  --------  --------
  0C   1s         0.001913  0.027134 -0.000000 -0.106459  0.125785 -0.054957
  0C   2s        -0.001907 -0.065095  0.000000  0.263203 -0.226864  0.073366
  0C   3s        -0.056305 -0.079699 -0.000001  0.383475 -2.000123  1.506656
  0C   1pz        0.000011  0.000000 -0.079806  0.000000 -0.000003  0.000009
  0C   1px       -0.203749 -0.264647  0.000000  0.455090  0.036345 -0.255653
  0C   1py        0.246655 -0.083376 -0.000000  0.017295  0.063093  0.122442
  0C   2pz        0.000005  0.000000  0.046948 -0.000000 -0.000005  0.000021
  0C   2px       -0.120355 -0.158789  0.000000  0.492050  0.255175 -0.558122
  0C   2py        0.070575  0.015747 -0.000000  0.061810  0.199145  0.418524
  0C   1dz2       0.013719  0.001640 -0.000000  0.010928 -0.001782 -0.009717
  0C   1dxz      -0.000000  0.000000  0.013083 -0.000000 -0.000000  0.000000
  0C   1dyz       0.000000 -0.000000 -0.003530  0.000000  0.000000 -0.000000
  0C   1dx2y2    -0.004384 -0.008379 -0.000000 -0.020323  0.000248  0.009341
  0C   1dxy      -0.011913  0.008495 -0.000000 -0.000440  0.000943  0.002055
  1O   1s        -0.047157  0.074937  0.000000 -0.083397 -0.037937 -0.027567
  1O   2s        -0.089792  0.150463  0.000000 -0.160582 -0.067884 -0.027804
  1O   3s        -0.163234  0.228309  0.000000 -0.471748 -0.318102 -0.378201
  1O   1pz        0.000003  0.000000  0.640387  0.000000  0.000000 -0.000001
  1O   1px        0.291575  0.366003 -0.000000  0.378494 -0.140315 -0.206261
  1O   1py       -0.289595  0.369889 -0.000000  0.141499  0.169852  0.198849
  1O   2pz        0.000002  0.000000  0.482814  0.000000  0.000001 -0.000002
  1O   2px        0.161305  0.268310 -0.000000  0.375314 -0.196419 -0.248542
  1O   2py       -0.138250  0.250273 -0.000000  0.163084  0.236166  0.265145
  1O   1dz2      -0.000949  0.008755 -0.000000 -0.001617  0.003621  0.001474
  1O   1dxz      -0.000000 -0.000000 -0.002825  0.000000  0.000000 -0.000000
  1O   1dyz      -0.000000 -0.000000 -0.014812 -0.000000 -0.000000 -0.000000
  1O   1dx2y2    -0.013582  0.002863  0.000000  0.010023 -0.000252 -0.000221
  1O   1dxy      -0.008744 -0.009330  0.000000 -0.008634  0.001046 -0.000365
  2H   1s        -0.159669  0.135381  0.000000 -0.001160  0.037643  0.009038
  2H   2s        -0.077765  0.081545  0.000000 -0.066849  1.204279 -0.185555
  2H   1pz        0.000000  0.000000 -0.005758  0.000000 -0.000000  0.000000
  2H   1px       -0.006780 -0.008585  0.000000  0.020804 -0.001041 -0.003576
  2H   1py       -0.002667  0.005192  0.000000 -0.004214 -0.006198  0.005337
  3H   1s         0.159549  0.009155 -0.090335 -0.022281  0.018996 -0.055461
  3H   2s         0.067225  0.002755 -0.070051 -0.122468  0.803631 -1.119381
  3H   1pz       -0.009040  0.000033  0.000527  0.004435  0.003405 -0.007421
  3H   1px       -0.003019 -0.007553  0.001808  0.019853 -0.002856 -0.004083
  3H   1py        0.003321 -0.004887  0.003711  0.002417  0.002555 -0.002141
  4H   1s         0.159535  0.009155  0.090334 -0.022281  0.018994 -0.055455
  4H   2s         0.067218  0.002754  0.070051 -0.122469  0.803625 -1.119337
  4H   1pz        0.009040 -0.000033  0.000527 -0.004435 -0.003405  0.007421
  4H   1px       -0.003019 -0.007553 -0.001808  0.019853 -0.002856 -0.004084
  4H   1py        0.003321 -0.004887 -0.003711  0.002417  0.002555 -0.002141
  5H   1s         0.288570 -0.137719 -0.000000  0.086842  0.099536  0.146116
  5H   2s         0.120085 -0.052646 -0.000000  0.329805  0.739321  0.887135
  5H   1pz        0.000000  0.000000  0.028966  0.000000  0.000000  0.000000
  5H   1px       -0.003217  0.020023 -0.000000  0.017704 -0.004565  0.001274
  5H   1py        0.023939  0.002373 -0.000000  0.006348 -0.006670 -0.008700
                     12        13        14        15        16        17   
                   0.13287   0.13510   0.42289   0.43169   0.47292   0.57534
                   0.00000   0.00000   0.00000   0.00000   0.00000   0.00000
                  --------  --------  --------  --------  --------  --------
  0C   1s         0.000001 -0.000290 -0.000407 -0.000001 -0.100666  0.025051
  0C   2s         0.000002  0.019473  0.008723  0.000006  0.469169 -0.047138
  0C   3s        -0.000107 -0.270818 -0.044733 -0.000035 -0.212266 -0.195452
  0C   1pz        0.404588 -0.000077  0.000000 -0.243404 -0.000000 -0.000009
  0C   1px        0.000020  0.075808  0.034294 -0.000003  0.760762  0.029142
  0C   1py        0.000071  0.378058 -0.242032  0.000001  0.003340 -0.033540
  0C   2pz        1.188770 -0.000229 -0.000009  1.231905 -0.000002  0.000021
  0C   2px        0.000037  0.113940 -0.061015  0.000012 -1.448713  0.206100
  0C   2py        0.000200  1.098471  1.148121 -0.000008 -0.054412 -0.245464
  0C   1dz2      -0.000001 -0.006675 -0.069500 -0.000001 -0.026743  0.059412
  0C   1dxz       0.001148 -0.000000 -0.000000  0.049673  0.000000 -0.000000
  0C   1dyz      -0.012278  0.000002  0.000000 -0.085060 -0.000000  0.000000
  0C   1dx2y2    -0.000002 -0.009239 -0.043042 -0.000000  0.061599 -0.008161
  0C   1dxy       0.000000  0.000543  0.048916 -0.000000 -0.000670  0.003005
  1O   1s         0.000004  0.020632 -0.027193  0.000000 -0.013936 -0.037413
  1O   2s         0.000006  0.032065 -0.086627  0.000000 -0.151055 -0.139337
  1O   3s         0.000050  0.229667  0.018015 -0.000001  0.646240  0.239173
  1O   1pz       -0.037476  0.000007  0.000000 -0.182640 -0.000001 -0.000001
  1O   1px        0.000021  0.089943 -0.054780 -0.000000  0.114766 -0.078115
  1O   1py       -0.000028 -0.130660 -0.044972 -0.000000  0.088522  0.397937
  1O   2pz       -0.068048  0.000013  0.000000 -0.068703  0.000000 -0.000001
  1O   2px        0.000025  0.110970 -0.051726  0.000001 -0.414625 -0.044654
  1O   2py       -0.000043 -0.205442  0.021283  0.000000 -0.023824  0.066720
  1O   1dz2      -0.000001 -0.004560 -0.010967  0.000000 -0.023448 -0.038442
  1O   1dxz      -0.004472  0.000001  0.000000 -0.016068 -0.000000 -0.000000
  1O   1dyz      -0.001378  0.000000  0.000000  0.001513  0.000000 -0.000000
  1O   1dx2y2    -0.000000 -0.002032 -0.011425  0.000000  0.023004 -0.052021
  1O   1dxy      -0.000001 -0.005626 -0.026903  0.000000 -0.006810 -0.044869
  2H   1s         0.000021  0.109636  0.801338  0.000003 -0.399041 -0.087878
  2H   2s         0.000380  1.939896 -0.079877 -0.000000  0.045580  0.208837
  2H   1pz        0.012217 -0.000002 -0.000000  0.064346  0.000000 -0.000000
  2H   1px       -0.000001 -0.004780 -0.017729  0.000000 -0.003199 -0.004478
  2H   1py       -0.000001 -0.006613 -0.000255 -0.000000  0.017388 -0.003186
  3H   1s        -0.092531 -0.038973 -0.399256 -0.725394 -0.326125  0.330536
  3H   2s        -1.646031 -0.733885  0.065162  0.066706 -0.004695 -0.068256
  3H   1pz       -0.000879 -0.004862 -0.022193  0.015004 -0.006206  0.051268
  3H   1px        0.005083  0.005134  0.006868  0.013429 -0.008514  0.007441
  3H   1py       -0.006764  0.008185  0.041834 -0.026765 -0.009623 -0.020122
  4H   1s         0.092514 -0.039007 -0.399257  0.725391 -0.326118  0.330530
  4H   2s         1.645819 -0.734529  0.065143 -0.066670 -0.004711 -0.068219
  4H   1pz       -0.000878  0.004862  0.022193  0.015003  0.006206 -0.051268
  4H   1px       -0.005081  0.005136  0.006869 -0.013429 -0.008513  0.007441
  4H   1py        0.006767  0.008182  0.041833  0.026766 -0.009623 -0.020122
  5H   1s        -0.000011 -0.046555  0.375112 -0.000002  0.080866  1.185961
  5H   2s        -0.000117 -0.540826 -0.163288  0.000001  0.074776 -1.103695
  5H   1pz        0.002068 -0.000000 -0.000000 -0.006624 -0.000000  0.000000
  5H   1px       -0.000000 -0.000822  0.037630 -0.000000  0.067025  0.041945
  5H   1py        0.000000  0.001378 -0.007574  0.000000 -0.015878 -0.152208
                     18        19        20        21        22        23   
                   0.63678   0.65927   0.66014   0.69038   0.95592   0.96123
                   0.00000   0.00000   0.00000   0.00000   0.00000   0.00000
                  --------  --------  --------  --------  --------  --------
  0C   1s        -0.256637 -0.019241 -0.000056  0.137149  0.000000  0.031679
  0C   2s         1.617406  0.066072  0.000266 -1.470484 -0.000003 -0.284819
  0C   3s        -4.055633 -0.109031 -0.000586  4.222097  0.000003  0.630818
  0C   1pz        0.000067  0.001677 -0.945686 -0.000024 -0.078338 -0.000001
  0C   1px       -0.507396 -0.103381 -0.000210 -0.311912 -0.000001 -0.114797
  0C   1py       -0.128290  0.932761  0.001647 -0.088254 -0.000001 -0.080946
  0C   2pz       -0.000124 -0.003054  1.721618  0.000040  0.336303 -0.000001
  0C   2px        0.891413  0.139376  0.000307 -0.041123  0.000001  0.038223
  0C   2py        0.192603 -1.730288 -0.003054  0.080581  0.000002  0.316188
  0C   1dz2      -0.015923 -0.096429 -0.000173 -0.004508 -0.000001 -0.082292
  0C   1dxz       0.000005  0.000152 -0.086116 -0.000002 -0.132680  0.000000
  0C   1dyz      -0.000006 -0.000193  0.109892  0.000003 -0.113469  0.000002
  0C   1dx2y2     0.066349 -0.047248 -0.000080  0.054573 -0.000000 -0.059133
  0C   1dxy      -0.002429  0.080451  0.000143  0.003458 -0.000001 -0.135938
  1O   1s        -0.003575 -0.017154 -0.000028 -0.100636  0.000000  0.138045
  1O   2s        -0.029277 -0.070122 -0.000118 -0.379477  0.000002  0.685955
  1O   3s         0.129842  0.055104  0.000107 -0.033677 -0.000002 -0.663034
  1O   1pz        0.000003  0.000059 -0.032961 -0.000002  0.855858 -0.000004
  1O   1px        0.020309  0.014871  0.000026  0.125691  0.000002  0.424992
  1O   1py        0.029431  0.084390  0.000148 -0.024059  0.000003  0.597679
  1O   2pz        0.000007  0.000168 -0.094759 -0.000002 -0.943639  0.000004
  1O   2px       -0.073313  0.000258 -0.000013  0.298797 -0.000001 -0.324640
  1O   2py        0.003234  0.100375  0.000178  0.033312 -0.000004 -0.830104
  1O   1dz2      -0.007160 -0.001684 -0.000003  0.000498  0.000000  0.008518
  1O   1dxz       0.000000  0.000006 -0.003255 -0.000000 -0.004788  0.000000
  1O   1dyz       0.000000  0.000006 -0.003644 -0.000000  0.000868  0.000000
  1O   1dx2y2    -0.004390 -0.005536 -0.000009 -0.020828 -0.000000 -0.005731
  1O   1dxy      -0.006207 -0.002287 -0.000004 -0.007251  0.000000  0.005698
  2H   1s        -0.453353  0.395614  0.000687 -0.676956 -0.000001  0.010937
  2H   2s         1.604462 -1.691855 -0.002875 -0.537987  0.000000 -0.011819
  2H   1pz        0.000003  0.000096 -0.054494 -0.000001  0.188421 -0.000002
  2H   1px        0.010685 -0.072075 -0.000127 -0.027894  0.000001  0.153881
  2H   1py        0.137818 -0.128511 -0.000219  0.057212  0.000000 -0.021491
  3H   1s        -0.317909 -0.342720  0.455141 -0.519301 -0.080656 -0.113389
  3H   2s         1.258973  0.995254 -1.583533 -0.871682 -0.090176 -0.163828
  3H   1pz       -0.086212 -0.097718  0.095943 -0.017594  0.025172 -0.090492
  3H   1px        0.010814  0.036888 -0.066665 -0.014144 -0.119840 -0.054391
  3H   1py       -0.063707 -0.007535  0.085154 -0.033281 -0.096172  0.123883
  4H   1s        -0.317852 -0.341108 -0.456380 -0.519318  0.080654 -0.113390
  4H   2s         1.258763  0.989644  1.587276 -0.871626  0.090175 -0.163831
  4H   1pz        0.086199  0.097379  0.096303  0.017601  0.025173  0.090493
  4H   1px        0.010805  0.036653  0.066798 -0.014140  0.119838 -0.054392
  4H   1py       -0.063696 -0.007234 -0.085189 -0.033287  0.096173  0.123880
  5H   1s         0.156613  0.184110  0.000322  0.225130 -0.000001 -0.245486
  5H   2s        -0.185935 -0.176573 -0.000303 -0.509914 -0.000001  0.062756
  5H   1pz       -0.000001 -0.000031  0.017759  0.000000 -0.073632  0.000000
  5H   1px        0.003821 -0.016956 -0.000029 -0.047914 -0.000000 -0.031751
  5H   1py       -0.014844 -0.026331 -0.000045 -0.033921 -0.000001 -0.098878
                     24        25        26        27        28        29   
                   1.05627   1.18409   1.22408   1.27017   1.46460   1.47171
                   0.00000   0.00000   0.00000   0.00000   0.00000   0.00000
                  --------  --------  --------  --------  --------  --------
  0C   1s        -0.013698  0.000000 -0.011499 -0.004757 -0.000000 -0.020335
  0C   2s         0.096804  0.000002  0.424987  0.368636 -0.000001 -0.063177
  0C   3s        -0.151366 -0.000012 -1.670751 -1.519072  0.000013  0.613449
  0C   1pz       -0.000001 -0.016396  0.000001  0.000002  0.003078 -0.000001
  0C   1px        0.015133  0.000002 -0.035440 -0.081682  0.000004  0.193959
  0C   1py       -0.041231  0.000001  0.003818 -0.063532 -0.000001 -0.036844
  0C   2pz        0.000001  0.391780 -0.000002 -0.000003 -0.055959  0.000004
  0C   2px        0.155211 -0.000001 -0.130792  0.010563 -0.000008 -0.323163
  0C   2py        0.155457 -0.000003 -0.308940  0.429808 -0.000001 -0.056771
  0C   1dz2      -0.109692 -0.000000 -0.135230  0.035370  0.000003  0.100220
  0C   1dxz      -0.000000  0.312223 -0.000002  0.000000 -0.035080  0.000001
  0C   1dyz       0.000001  0.206593 -0.000001 -0.000002 -0.003459  0.000002
  0C   1dx2y2    -0.008909  0.000000 -0.002975  0.141664 -0.000007 -0.273198
  0C   1dxy      -0.189615 -0.000000 -0.179452  0.187797  0.000000  0.012063
  1O   1s        -0.147648 -0.000001 -0.135320 -0.143800  0.000000  0.022083
  1O   2s        -0.918545 -0.000004 -0.746704 -0.938415  0.000001  0.095138
  1O   3s         1.543679  0.000005  0.888590  1.576609  0.000001 -0.023253
  1O   1pz       -0.000000  0.363234 -0.000002 -0.000001 -0.138759  0.000004
  1O   1px       -0.529238  0.000003  0.463907  0.313412 -0.000005 -0.225849
  1O   1py        0.268072 -0.000002 -0.292567  0.307528  0.000000 -0.008381
  1O   2pz        0.000000 -0.425362  0.000002  0.000001  0.489091 -0.000014
  1O   2px        0.873449 -0.000005 -0.799777 -0.322226  0.000012  0.494239
  1O   2py       -0.902029  0.000003  0.624292 -0.865716  0.000002  0.092688
  1O   1dz2      -0.000035 -0.000000 -0.001199  0.038971  0.000000  0.013340
  1O   1dxz       0.000000 -0.046322  0.000000  0.000000 -0.063652  0.000002
  1O   1dyz       0.000000  0.023873 -0.000000 -0.000000  0.174827 -0.000005
  1O   1dx2y2     0.025509 -0.000000 -0.059237  0.020302 -0.000003 -0.132779
  1O   1dxy       0.016380  0.000000  0.038203  0.030996  0.000003  0.125744
  2H   1s        -0.013508  0.000002  0.146347  0.324582 -0.000005 -0.210992
  2H   2s         0.275685 -0.000001  0.102173  0.462757 -0.000002 -0.121907
  2H   1pz       -0.000001 -0.289085  0.000000  0.000002 -0.051404  0.000001
  2H   1px        0.159300 -0.000001  0.204611 -0.466467  0.000001  0.014091
  2H   1py       -0.049988 -0.000001 -0.105384  0.102152  0.000003  0.121077
  3H   1s         0.000004 -0.105731  0.287975  0.178965  0.023452 -0.132044
  3H   2s         0.011167 -0.132470  0.302454  0.142092 -0.013451 -0.113530
  3H   1pz       -0.108062  0.044018 -0.101444  0.118446 -0.081418 -0.033730
  3H   1px       -0.105414  0.371286 -0.229601  0.073035 -0.168996  0.206403
  3H   1py        0.123365  0.200497  0.097951 -0.038660 -0.033314  0.101100
  4H   1s         0.000003  0.105735  0.287974  0.178964 -0.023458 -0.132040
  4H   2s         0.011168  0.132476  0.302459  0.142093  0.013447 -0.113533
  4H   1pz        0.108063  0.044017  0.101445 -0.118446 -0.081416  0.033730
  4H   1px       -0.105414 -0.371286 -0.229597  0.073035  0.169006  0.206395
  4H   1py        0.123364 -0.200496  0.097952 -0.038660  0.033319  0.101095
  5H   1s        -0.507849  0.000001  0.236453 -0.603727 -0.000001 -0.020297
  5H   2s        -0.728408  0.000001  0.101226 -0.173042 -0.000001 -0.024640
  5H   1pz        0.000000 -0.216461  0.000002  0.000001 -0.937438  0.000024
  5H   1px        0.160103 -0.000001 -0.299350 -0.103402 -0.000019 -0.744999
  5H   1py       -0.213101  0.000000 -0.015339 -0.207290 -0.000008 -0.299138
                     30        31        32        33        34        35   
                   1.51100   1.69469   1.72248   1.85049   1.92555   1.93386
                   0.00000   0.00000   0.00000   0.00000   0.00000   0.00000
                  --------  --------  --------  --------  --------  --------
  0C   1s         0.000000 -0.000001  0.000973  0.027838 -0.000001  0.001498
  0C   2s         0.000000 -0.000000 -0.021607  0.044725  0.000002 -0.013382
  0C   3s        -0.000001  0.000025  0.110963 -0.947282 -0.000004  0.034586
  0C   1pz        0.000484  0.105681 -0.000003 -0.000006  0.507675  0.000166
  0C   1px       -0.000000  0.000000 -0.028147 -0.088230 -0.000006  0.007734
  0C   1py        0.000002  0.000011  0.168698  0.029955  0.000154 -0.478025
  0C   2pz       -0.011878 -0.986190  0.000066 -0.000006  0.122905  0.000035
  0C   2px        0.000001  0.000010  0.230461 -1.076118 -0.000019 -0.000286
  0C   2py       -0.000003 -0.000057 -1.068884 -0.168498  0.000090 -0.251511
  0C   1dz2      -0.000000 -0.000019 -0.265410  0.225741 -0.000068  0.224706
  0C   1dxz       0.001054 -0.016217  0.000003 -0.000005  0.499499  0.000163
  0C   1dyz       0.000911 -0.220266  0.000012  0.000002 -0.271904 -0.000092
  0C   1dx2y2     0.000001 -0.000000 -0.014240 -0.403210 -0.000059  0.164984
  0C   1dxy      -0.000001  0.000000 -0.015621 -0.045312  0.000156 -0.481377
  1O   1s         0.000000  0.000002  0.021246 -0.125037 -0.000011  0.029956
  1O   2s         0.000000  0.000015  0.194120 -0.889497 -0.000064  0.165919
  1O   3s        -0.000001 -0.000032 -0.450827  1.552363  0.000063 -0.128989
  1O   1pz       -0.002808 -0.143889  0.000009 -0.000001  0.033560  0.000010
  1O   1px        0.000000 -0.000003 -0.014841  0.306326 -0.000016  0.060772
  1O   1py       -0.000001 -0.000009 -0.149997  0.043554  0.000060 -0.181687
  1O   2pz        0.008841  0.374276 -0.000023  0.000002 -0.085828 -0.000026
  1O   2px       -0.000001  0.000005 -0.016257 -1.104495  0.000011 -0.068314
  1O   2py        0.000002  0.000029  0.489014 -0.104488 -0.000076  0.215225
  1O   1dz2      -0.000000 -0.000004 -0.058488  0.165393  0.000007 -0.011823
  1O   1dxz      -0.000373  0.058240 -0.000004  0.000001 -0.080088 -0.000026
  1O   1dyz       0.002498  0.057558 -0.000004  0.000001 -0.036511 -0.000012
  1O   1dx2y2     0.000000  0.000001  0.019312 -0.089615  0.000004 -0.016867
  1O   1dxy      -0.000000  0.000000 -0.006939 -0.088726 -0.000021  0.064249
  2H   1s         0.000001 -0.000025 -0.386343 -0.072849 -0.000015  0.039749
  2H   2s        -0.000002 -0.000017 -0.315334  0.028741  0.000145 -0.447832
  2H   1pz        0.599990  0.574925 -0.000038  0.000004 -0.239473 -0.000078
  2H   1px        0.000000 -0.000021 -0.403302  0.351220  0.000173 -0.502496
  2H   1py       -0.000002  0.000026  0.430045  0.053968  0.000138 -0.438737
  3H   1s         0.003712  0.346999  0.226427 -0.010092  0.067960 -0.022463
  3H   2s         0.003697  0.233785  0.147913  0.089388 -0.333634  0.207869
  3H   1pz       -0.294789  0.467265 -0.044150  0.008995  0.281815 -0.299689
  3H   1px       -0.013284  0.332030  0.074333  0.439755 -0.456529  0.262372
  3H   1py        0.514460 -0.060693  0.537146  0.092264  0.288391  0.113330
  4H   1s        -0.003712 -0.346976  0.226470 -0.010095 -0.067955 -0.022510
  4H   2s        -0.003694 -0.233783  0.147957  0.089377  0.333487  0.208085
  4H   1pz       -0.294788  0.467266  0.044099 -0.009000  0.281610  0.299878
  4H   1px        0.013283 -0.332021  0.074382  0.439741  0.456369  0.262668
  4H   1py       -0.514456  0.060756  0.537134  0.092272 -0.288468  0.113143
  5H   1s         0.000001  0.000017  0.292208 -0.156751 -0.000032  0.082428
  5H   2s         0.000000 -0.000000  0.001408  0.118564 -0.000009  0.027302
  5H   1pz       -0.012046 -0.195099  0.000011 -0.000001  0.052791  0.000016
  5H   1px        0.000002  0.000006  0.159559  0.365858 -0.000033  0.113337
  5H   1py        0.000001  0.000005  0.118364  0.246858  0.000055 -0.172381
                     36        37        38        39        40        41   
                   2.06189   2.15752   2.40663   2.40684   2.61840   2.71110
                   0.00000   0.00000   0.00000   0.00000   0.00000   0.00000
                  --------  --------  --------  --------  --------  --------
  0C   1s         0.003467 -0.062989 -0.000003  0.000567 -0.245704 -0.000003
  0C   2s        -0.049168  0.395381  0.000044 -0.008305  1.445996  0.000020
  0C   3s        -0.088114  0.376552 -0.000071  0.017214  1.133008  0.000011
  0C   1pz        0.000001  0.000002 -0.189531 -0.000824  0.000016 -0.185383
  0C   1px        0.141415 -0.246427 -0.000034  0.006638 -0.500999 -0.000007
  0C   1py       -0.113689 -0.068262  0.000803 -0.187026  0.000849 -0.000001
  0C   2pz       -0.000003  0.000009 -0.505132 -0.002186  0.000020  0.206035
  0C   2px        0.252139 -0.502639 -0.000173  0.038026 -0.129026 -0.000002
  0C   2py       -0.079213 -0.036227  0.002132 -0.494663 -0.010637 -0.000003
  0C   1dz2       0.150327 -0.295339 -0.002514  0.581228  0.268771 -0.000002
  0C   1dxz       0.000003 -0.000009  0.751066  0.003247 -0.000021  0.261335
  0C   1dyz      -0.000001 -0.000003  0.695327  0.002998  0.000026 -0.109060
  0C   1dx2y2    -0.119336  0.568080 -0.001204  0.280201 -0.465512 -0.000006
  0C   1dxy      -0.075323  0.035769 -0.003428  0.794084 -0.049197 -0.000000
  1O   1s        -0.065829 -0.029649 -0.000006  0.001224  0.016701  0.000000
  1O   2s        -0.194749 -0.095793  0.000010 -0.002726  0.105350  0.000001
  1O   3s        -0.651812 -0.122821 -0.000222  0.052085 -0.175392 -0.000003
  1O   1pz       -0.000000  0.000000 -0.001807 -0.000008  0.000000  0.043300
  1O   1px       -0.207264 -0.088546  0.000010 -0.002230 -0.038113 -0.000001
  1O   1py        0.467585  0.163859  0.000072 -0.016648 -0.015603 -0.000000
  1O   2pz        0.000001 -0.000001  0.019375  0.000085 -0.000002 -0.082644
  1O   2px        0.009410  0.002318 -0.000154  0.034849  0.114934  0.000001
  1O   2py        0.185889  0.140809 -0.000003  0.001122 -0.003877  0.000001
  1O   1dz2      -0.078920 -0.183374 -0.000239  0.054708  0.326635  0.000003
  1O   1dxz      -0.000000 -0.000000 -0.092007 -0.000396 -0.000006  0.923286
  1O   1dyz      -0.000000 -0.000000 -0.005729 -0.000024 -0.000001  0.322009
  1O   1dx2y2    -0.135540  0.054122 -0.000184  0.042893 -0.240268 -0.000003
  1O   1dxy      -0.107511  0.009175  0.000291 -0.067163 -0.075038 -0.000000
  2H   1s         0.035679 -0.099466  0.000681 -0.158721 -0.633885 -0.000011
  2H   2s        -0.103718 -0.269515  0.001284 -0.298631 -0.340737 -0.000005
  2H   1pz        0.000002 -0.000009  0.669466  0.002891  0.000001 -0.052954
  2H   1px       -0.320716  0.393812 -0.001304  0.302597 -0.318716 -0.000005
  2H   1py        0.013991 -0.430801  0.001074 -0.250708 -0.754256 -0.000011
  3H   1s         0.036054 -0.099369  0.132539  0.077007 -0.641166  0.095103
  3H   2s         0.122347 -0.166126  0.277650  0.155731 -0.348791 -0.097081
  3H   1pz       -0.188672  0.299359 -0.031714 -0.407331  0.668562 -0.151585
  3H   1px       -0.161357  0.417057 -0.243227 -0.172202 -0.349223 -0.033037
  3H   1py       -0.034854  0.213988 -0.417166  0.426637  0.373001 -0.057921
  4H   1s         0.036052 -0.099364 -0.133200  0.075855 -0.641135 -0.095119
  4H   2s         0.122348 -0.166120 -0.278988  0.153324 -0.348771  0.097077
  4H   1pz        0.188677 -0.299361 -0.035233  0.407044 -0.668526 -0.151600
  4H   1px       -0.161355  0.417057  0.244720 -0.170100 -0.349214  0.033032
  4H   1py       -0.034855  0.213982  0.413475  0.430232  0.372986  0.057929
  5H   1s         0.265375  0.123534  0.000019 -0.004061 -0.013170  0.000000
  5H   2s         0.361756  0.213858  0.000308 -0.070722 -0.005803  0.000000
  5H   1pz       -0.000000 -0.000000  0.032189  0.000139  0.000000  0.009248
  5H   1px       -0.369618 -0.283351 -0.000007  0.001273  0.044472  0.000001
  5H   1py        0.993976  0.345085  0.000249 -0.057197 -0.020019  0.000000
                     42        43        44        45        46        47   
                   2.84027   2.88555   2.88830   2.93237   2.95985   3.64183
                   0.00000   0.00000   0.00000   0.00000   0.00000   0.00000
                  --------  --------  --------  --------  --------  --------
  0C   1s         0.062650 -0.000009 -0.014090 -0.000002 -0.046915 -0.008250
  0C   2s        -0.508594  0.000069  0.113913  0.000016  0.368981  0.041404
  0C   3s         0.125305 -0.000050 -0.023106  0.000005 -0.010105  0.111907
  0C   1pz       -0.000020  1.055298 -0.001273 -0.291170 -0.000017 -0.000001
  0C   1px        0.230362 -0.000074 -0.081828 -0.000006 -0.137842 -0.011681
  0C   1py        0.224446  0.001290  1.080358  0.000025 -0.072235 -0.002535
  0C   2pz       -0.000015  0.748568 -0.000897 -0.173119 -0.000010  0.000000
  0C   2px        0.281564 -0.000098 -0.088300 -0.000002 -0.208655 -0.036823
  0C   2py        0.026568  0.000893  0.747236  0.000018 -0.164290 -0.191316
  0C   1dz2      -0.100470  0.001236  1.029909  0.000020  0.098343  0.019055
  0C   1dxz       0.000016 -0.735052  0.000884  0.186593  0.000011  0.000000
  0C   1dyz      -0.000020  1.065565 -0.001276 -0.321193 -0.000017 -0.000000
  0C   1dx2y2     0.538747  0.000635  0.512877  0.000009 -0.366977 -0.047385
  0C   1dxy      -0.211398 -0.000829 -0.692283 -0.000015 -0.067663 -0.058687
  1O   1s         0.029502 -0.000008 -0.006445  0.000000 -0.015854 -0.030872
  1O   2s         0.241317 -0.000068 -0.056672  0.000000 -0.138438  0.080484
  1O   3s        -0.467923  0.000141  0.118441 -0.000000  0.299299 -1.159036
  1O   1pz       -0.000000  0.025654 -0.000031  0.028443  0.000000  0.000000
  1O   1px       -0.125761  0.000027  0.022668  0.000000  0.044899 -0.083557
  1O   1py       -0.013817  0.000016  0.014118  0.000001 -0.048893  0.220477
  1O   2pz        0.000002 -0.131940  0.000162 -0.145916  0.000000 -0.000000
  1O   2px        0.396818 -0.000061 -0.053089 -0.000001 -0.064858 -0.356853
  1O   2py        0.108457 -0.000133 -0.113484 -0.000003  0.060196  0.921716
  1O   1dz2       0.698724 -0.000201 -0.170342 -0.000001 -0.252933  0.614580
  1O   1dxz      -0.000002  0.068433 -0.000072 -0.369027 -0.000004  0.000000
  1O   1dyz      -0.000003  0.312539 -0.000393  0.910085  0.000006  0.000000
  1O   1dx2y2    -0.072645  0.000067  0.045329 -0.000007  0.709999  0.795547
  1O   1dxy      -0.546891  0.000085  0.084550  0.000009 -0.630636  0.676739
  2H   1s         0.410381  0.001315  1.076453  0.000019 -0.240745 -0.059756
  2H   2s         0.065573  0.000595  0.491402  0.000010 -0.157196 -0.162317
  2H   1pz        0.000000  0.027849 -0.000032 -0.028759 -0.000001 -0.000000
  2H   1px        0.115820  0.000420  0.342730  0.000006 -0.131523 -0.029137
  2H   1py        0.458543  0.001281  1.045746  0.000018 -0.226778 -0.022918
  3H   1s         0.118303 -0.947288 -0.607915  0.260374 -0.119751 -0.014445
  3H   2s         0.019925 -0.438893 -0.259130  0.104138  0.017084  0.013036
  3H   1pz       -0.104087  0.802135  0.496287 -0.223765  0.111140  0.012506
  3H   1px        0.094629 -0.349537 -0.228469  0.108983 -0.028975 -0.009498
  3H   1py       -0.047043  0.436209  0.316878 -0.109287  0.065073  0.036403
  4H   1s         0.118268  0.945888 -0.610199 -0.260413 -0.119782 -0.014447
  4H   2s         0.019907  0.438286 -0.260182 -0.104153  0.017073  0.013037
  4H   1pz        0.104054  0.800983 -0.498208 -0.223794 -0.111165 -0.012507
  4H   1px        0.094619  0.349011 -0.229308 -0.108998 -0.028987 -0.009498
  4H   1py       -0.047025 -0.435471  0.317931  0.109304  0.065086  0.036404
  5H   1s         0.092533 -0.000071 -0.060425 -0.000001 -0.053039  1.216840
  5H   2s        -0.036365  0.000020  0.017205  0.000000  0.014379  0.331935
  5H   1pz       -0.000001  0.133074 -0.000169  0.460644  0.000003  0.000000
  5H   1px       -0.260793 -0.000012 -0.002135  0.000004 -0.336051 -0.377056
  5H   1py       -0.062335 -0.000018 -0.012654  0.000002 -0.187318  0.955859



                    ********************************
                    * MULLIKEN POPULATION ANALYSIS *
                    ********************************

-----------------------
MULLIKEN ATOMIC CHARGES
-----------------------
   0 C :    0.080684
   1 O :   -0.416452
   2 H :    0.039470
   3 H :    0.053457
   4 H :    0.053456
   5 H :    0.189386
Sum of atomic charges:   -0.0000000

--------------------------------
MULLIKEN REDUCED ORBITAL CHARGES
--------------------------------
  0 C s       :     3.130892  s :     3.130892
      pz      :     1.040889  p :     2.763448
      px      :     0.697138
      py      :     1.025421
      dz2     :     0.005162  d :     0.024976
      dxz     :     0.005669
      dyz     :     0.004824
      dx2y2   :     0.005039
      dxy     :     0.004282
  1 O s       :     3.859193  s :     3.859193
      pz      :     1.960068  p :     4.550897
      px      :     1.223279
      py      :     1.367551
      dz2     :     0.001315  d :     0.006362
      dxz     :     0.000188
      dyz     :     0.000660
      dx2y2   :     0.003078
      dxy     :     0.001121
  2 H s       :     0.936631  s :     0.936631
      pz      :     0.005600  p :     0.023899
      px      :     0.004419
      py      :     0.013880
  3 H s       :     0.923195  s :     0.923195
      pz      :     0.011765  p :     0.023348
      px      :     0.004117
      py      :     0.007466
  4 H s       :     0.923196  s :     0.923196
      pz      :     0.011765  p :     0.023348
      px      :     0.004117
      py      :     0.007466
  5 H s       :     0.755706  s :     0.755706
      pz      :     0.015996  p :     0.054908
      px      :     0.011347
      py      :     0.027566


                     *******************************
                     * LOEWDIN POPULATION ANALYSIS *
                     *******************************

----------------------
LOEWDIN ATOMIC CHARGES
----------------------
   0 C :    0.108773
   1 O :   -0.290975
   2 H :    0.022522
   3 H :    0.028578
   4 H :    0.028576
   5 H :    0.102526

-------------------------------
LOEWDIN REDUCED ORBITAL CHARGES
-------------------------------
  0 C s       :     2.919711  s :     2.919711
      pz      :     1.096204  p :     2.915956
      px      :     0.731944
      py      :     1.087808
      dz2     :     0.012167  d :     0.055561
      dxz     :     0.011482
      dyz     :     0.012239
      dx2y2   :     0.011647
      dxy     :     0.008026
  1 O s       :     3.660688  s :     3.660688
      pz      :     1.937991  p :     4.619839
      px      :     1.239648
      py      :     1.442200
      dz2     :     0.002187  d :     0.010448
      dxz     :     0.000217
      dyz     :     0.000330
      dx2y2   :     0.005447
      dxy     :     0.002268
  2 H s       :     0.909274  s :     0.909274
      pz      :     0.012874  p :     0.068205
      px      :     0.014270
      py      :     0.041060
  3 H s       :     0.903644  s :     0.903644
      pz      :     0.034290  p :     0.067777
      px      :     0.014138
      py      :     0.019350
  4 H s       :     0.903645  s :     0.903645
      pz      :     0.034290  p :     0.067779
      px      :     0.014138
      py      :     0.019351
  5 H s       :     0.755218  s :     0.755218
      pz      :     0.038591  p :     0.142256
      px      :     0.027492
      py      :     0.076173


                      *****************************
                      * MAYER POPULATION ANALYSIS *
                      *****************************

  NA   - Mulliken gross atomic population
  ZA   - Total nuclear charge
  QA   - Mulliken gross atomic charge
  VA   - Mayer's total valence
  BVA  - Mayer's bonded valence
  FA   - Mayer's free valence

  ATOM       NA         ZA         QA         VA         BVA        FA
  0 C      5.9193     6.0000     0.0807     3.9377     3.9377    -0.0000
  1 O      8.4165     8.0000    -0.4165     1.9468     1.9468     0.0000
  2 H      0.9605     1.0000     0.0395     0.9817     0.9817    -0.0000
  3 H      0.9465     1.0000     0.0535     0.9832     0.9832    -0.0000
  4 H      0.9465     1.0000     0.0535     0.9832     0.9832    -0.0000
  5 H      0.8106     1.0000     0.1894     0.9784     0.9784     0.0000

  Mayer bond orders larger than 0.1
B(  0-C ,  1-O ) :   0.9686 B(  0-C ,  2-H ) :   0.9838 B(  0-C ,  3-H ) :   0.9856 
B(  0-C ,  4-H ) :   0.9856 B(  1-O ,  5-H ) :   0.9619 

-------
TIMINGS
-------

Total SCF time: 0 days 0 hours 0 min 2 sec 

Total time                  ....       2.802 sec
Sum of individual times     ....       2.788 sec  ( 99.5%)

Fock matrix formation       ....       2.389 sec  ( 85.3%)
  XC integration            ....       0.589 sec  ( 24.7% of F)
    Basis function eval.    ....       0.362 sec  ( 61.5% of XC)
    Density eval.           ....       0.058 sec  (  9.8% of XC)
    XC-Functional eval.     ....       0.067 sec  ( 11.4% of XC)
    XC-Potential eval.      ....       0.084 sec  ( 14.3% of XC)
Diagonalization             ....       0.002 sec  (  0.1%)
Density matrix formation    ....       0.000 sec  (  0.0%)
Population analysis         ....       0.001 sec  (  0.0%)
Initial guess               ....       0.120 sec  (  4.3%)
Orbital Transformation      ....       0.000 sec  (  0.0%)
Orbital Orthonormalization  ....       0.000 sec  (  0.0%)
DIIS solution               ....       0.001 sec  (  0.0%)
SOSCF solution              ....       0.023 sec  (  0.8%)
Grid generation             ....       0.251 sec  (  8.9%)

-------------------------   --------------------
FINAL SINGLE POINT ENERGY      -115.498914296437
-------------------------   --------------------

------------------------------------------------------------------------------
                         ORCA SCF GRADIENT CALCULATION
------------------------------------------------------------------------------

Gradient of the Kohn-Sham DFT energy:
Kohn-Sham wavefunction type      ... RKS
Hartree-Fock exchange scaling    ...    0.200
Number of operators              ...    1
Number of atoms                  ...    6
Basis set dimensions             ...   48
Integral neglect threshold       ... 2.5e-11
Integral primitive cutoff        ... 2.5e-12

Nuclear repulsion gradient       ... done
One Electron Gradient            ... done
Pre-screening matrix             ... done
Starting the two electron gradient:
Two electron gradient done
Exchange-correlation gradient    ... done

------------------
CARTESIAN GRADIENT
------------------

   1   C   :   -0.064688089    0.009939230   -0.000004855
   2   O   :    0.058428332    0.041121169    0.000000081
   3   H   :   -0.006007965    0.006941863    0.000000051
   4   H   :   -0.011066792   -0.004319350   -0.007481160
   5   H   :   -0.011065069   -0.004322001    0.007485880
   6   H   :    0.034399583   -0.049360911    0.000000004

Difference to translation invariance:
           :   -0.0000000000    0.0000000000    0.0000000000

Norm of the cartesian gradient     ...    0.1161315032
RMS gradient                       ...    0.0273724578
MAX gradient                       ...    0.0646880894

-------
TIMINGS
-------

Total SCF gradient time            ...        0.584 sec

One electron gradient       ....       0.005 sec  (  0.8%)
Prescreening matrices       ....       0.007 sec  (  1.2%)
Two electron gradient       ....       0.132 sec  ( 22.5%)
XC gradient                 ....       0.339 sec  ( 58.0%)
------------------------------------------------------------------------------
                         ORCA GEOMETRY RELAXATION STEP
------------------------------------------------------------------------------

Reading the OPT-File                    .... done
Getting information on internals        .... done
Copying old internal coords+grads       .... done
Making the new internal coordinates     .... (new redundants).... done
Validating the new internal coordinates .... (new redundants).... done
Calculating the B-matrix                .... done
Calculating the G,G- and P matrices     .... done
Transforming gradient to internals      .... done
Projecting the internal gradient        .... done
Number of atoms                         ....   6
Number of internal coordinates          ....  15
Current Energy                          ....  -115.498914296 Eh
Current gradient norm                   ....     0.116131503 Eh/bohr
Maximum allowed component of the step   ....  0.300
Current trust radius                    ....  0.300
Evaluating the initial hessian          ....  (Almloef) done
Projecting the Hessian                  .... done
Forming the augmented Hessian           .... done
Diagonalizing the augmented Hessian     .... done
Last element of RFO vector              ....  0.859250428
Lowest eigenvalues of augmented Hessian:
 -0.065487140  0.002063067  0.146439790  0.175220618  0.175325731
Length of the computed step             ....  0.595350510
Warning: the length of the step is outside the trust region - taking restricted step instead
The input lambda is                     ....    -0.065487
   iter:   1  x=   -0.129907  g=    4.104983 f(x)=     0.264442
   iter:   2  x=   -0.193831  g=    1.558626 f(x)=     0.099633
   iter:   3  x=   -0.232482  g=    0.763078 f(x)=     0.029494
   iter:   4  x=   -0.241455  g=    0.533756 f(x)=     0.004789
   iter:   5  x=   -0.241819  g=    0.494281 f(x)=     0.000180
   iter:   6  x=   -0.241820  g=    0.492762 f(x)=     0.000000
   iter:   7  x=   -0.241820  g=    0.492759 f(x)=     0.000000
   iter:   8  x=   -0.241820  g=    0.492759 f(x)=    -0.000000
The output lambda is                    ....    -0.241820 (8 iterations)
The final length of the internal step   ....  0.300000000
Converting the step to cartesian space:
 Initial RMS(Int)=    0.0774596669
Transforming coordinates:
 Iter   0:  RMS(Cart)=    0.1031449535 RMS(Int)=    0.0773707639
 Iter   1:  RMS(Cart)=    0.0010154554 RMS(Int)=    0.0011599553
 Iter   2:  RMS(Cart)=    0.0000499491 RMS(Int)=    0.0000725694
 Iter   3:  RMS(Cart)=    0.0000019202 RMS(Int)=    0.0000028306
 Iter   4:  RMS(Cart)=    0.0000000620 RMS(Int)=    0.0000000888
done
Storing new coordinates                 .... done

                                .--------------------.
          ----------------------|Geometry convergence|-------------------------
          Item                value                   Tolerance       Converged
          ---------------------------------------------------------------------
          RMS gradient        0.0302801806            0.0001000000      NO
          MAX gradient        0.0925262574            0.0003000000      NO
          RMS step            0.0774596669            0.0020000000      NO
          MAX step            0.2724025657            0.0040000000      NO
          ........................................................
          Max(Bonds)      0.1441      Max(Angles)    3.21
          Max(Dihed)        0.17      Max(Improp)    0.00
          ---------------------------------------------------------------------

The optimization has not yet converged - more geometry cycles are needed


    ---------------------------------------------------------------------------
                         Redundant Internal Coordinates
                            (Angstroem and degrees)

        Definition                    Value    dE/dq     Step     New-Value
    ----------------------------------------------------------------------------
     1. B(O   1,C   0)                1.8647  0.092526 -0.1441    1.7205   
     2. B(H   2,C   0)                1.0900 -0.004790  0.0042    1.0942   
     3. B(H   3,C   0)                1.0900 -0.004250  0.0037    1.0937   
     4. B(H   4,C   0)                1.0900 -0.004255  0.0037    1.0937   
     5. B(H   5,O   1)                1.0500  0.058479 -0.0503    0.9997   
     6. A(O   1,C   0,H   3)          109.47  0.015304   -1.71    107.76   
     7. A(O   1,C   0,H   2)          109.47  0.005011   -0.51    108.95   
     8. A(O   1,C   0,H   4)          109.47  0.015304   -1.71    107.76   
     9. A(H   2,C   0,H   4)          109.47 -0.011141    1.26    110.73   
    10. A(H   3,C   0,H   4)          109.47 -0.013337    1.43    110.90   
    11. A(H   2,C   0,H   3)          109.47 -0.011141    1.26    110.73   
    12. A(C   0,O   1,H   5)          109.48  0.028121   -3.21    106.27   
    13. D(H   5,O   1,C   0,H   3)    120.00 -0.001207    0.17    120.17   
    14. D(H   5,O   1,C   0,H   4)   -120.00  0.001206   -0.17   -120.17   
    15. D(H   5,O   1,C   0,H   2)      0.00  0.000000   -0.00     -0.00   
    ----------------------------------------------------------------------------

         *************************************************************
         *                GEOMETRY OPTIMIZATION CYCLE   2            *
         *************************************************************
---------------------------------
CARTESIAN COORDINATES (ANGSTROEM)
---------------------------------
  C     -1.441181   -0.041516   -0.000059
  O      0.277469    0.038947   -0.000060
  H     -1.747594   -1.091955   -0.000059
  H     -1.798546    0.465713    0.900648
  H     -1.798548    0.465716   -0.900761
  H      0.602150   -0.906576   -0.000060

----------------------------
CARTESIAN COORDINATES (A.U.)
----------------------------
  NO LB      ZA    FRAG     MASS         X           Y           Z
   0 C     6.0000    0    12.011   -2.723438   -0.078454   -0.000112
   1 O     8.0000    0    15.999    0.524340    0.073600   -0.000113
   2 H     1.0000    0     1.008   -3.302474   -2.063495   -0.000112
   3 H     1.0000    0     1.008   -3.398760    0.880071    1.701979
   4 H     1.0000    0     1.008   -3.398763    0.880075   -1.702191
   5 H     1.0000    0     1.008    1.137899   -1.713180   -0.000113

--------------------------------
INTERNAL COORDINATES (ANGSTROEM)
--------------------------------
 C      0   0   0     0.000000000000     0.00000000     0.00000000
 O      1   0   0     1.720532599596     0.00000000     0.00000000
 H      1   2   0     1.094216844465   108.94246533     0.00000000
 H      1   2   3     1.093739206953   107.73959781   120.16021522
 H      1   2   3     1.093735931263   107.73971207   239.83954361
 H      2   1   3     0.999715607908   106.27135417     0.00000000

---------------------------
INTERNAL COORDINATES (A.U.)
---------------------------
 C      0   0   0     0.000000000000     0.00000000     0.00000000
 O      1   0   0     3.251335417720     0.00000000     0.00000000
 H      1   2   0     2.067770167162   108.94246533     0.00000000
 H      1   2   3     2.066867563073   107.73959781   120.16021522
 H      1   2   3     2.066861372916   107.73971207   239.83954361
 H      2   1   3     1.889188710753   106.27135417     0.00000000


Diagonalization of the overlap matrix:
Smallest eigenvalue                        ... 1.410e-02
Time for diagonalization                   ...    0.001 sec
Threshold for overlap eigenvalues          ... 1.000e-08
Number of eigenvalues below threshold      ... 0
Time for construction of square roots      ...    0.000 sec
Total time needed                          ...    0.001 sec

-------------------
DFT GRID GENERATION
-------------------

General Integration Accuracy     IntAcc      ...  4.340
Radial Grid Type                 RadialGrid  ... Gauss-Chebyshev
Angular Grid (max. acc.)         AngularGrid ... Lebedev-110
Angular grid pruning method      GridPruning ... 3 (G Style)
Weight generation scheme         WeightScheme... Becke
Basis function cutoff            BFCut       ...    1.0000e-11
Integration weight cutoff        WCut        ...    1.0000e-14
Grids for H and He will be reduced by one unit

# of grid points (after initial pruning)     ...   6548 (   0.0 sec)
# of grid points (after weights+screening)   ...   6396 (   0.0 sec)
nearest neighbour list constructed           ...    0.0 sec
Grid point re-assignment to atoms done       ...    0.0 sec
Grid point division into batches done        ...    0.0 sec
Reduced shell lists constructed in    0.0 sec

Total number of grid points                  ...     6396
Total number of batches                      ...      104
Average number of points per batch           ...       61
Average number of grid points per atom       ...     1066
Average number of shells per batch           ...    21.40 (89.17%)
Average number of basis functions per batch  ...    42.92 (89.42%)
Average number of large shells per batch     ...    19.41 (90.70%)
Average number of large basis fcns per batch ...    38.15 (88.88%)
Maximum spatial batch extension              ...  20.19, 18.42, 25.60 au
Average spatial batch extension              ...   4.76,  4.50,  4.57 au

Time for grid setup =    0.037 sec

--------------
SCF ITERATIONS
--------------
ITER       Energy         Delta-E        Max-DP      RMS-DP      [F,P]     Damp
               ***  Starting incremental Fock matrix formation  ***
  0   -115.5271881373   0.000000000000 0.00744549  0.00053109  0.0250682 0.7000
                      *** Initiating the SOSCF procedure ***
                      *** Re-Reading the Fockian *** 
                      *** Removing any level shift *** 
ITER      Energy       Delta-E        Grad      Rot      Max-DP    RMS-DP
  1   -115.52806963  -0.0008814948  0.002967  0.002967  0.018005  0.001552
               *** Restarting incremental Fock matrix formation ***
  2   -115.53011656  -0.0020469320  0.005454  0.006223  0.014716  0.000818
  3   -115.52989238   0.0002241839  0.008847  0.007405  0.010617  0.000525
  4   -115.53027924  -0.0003868632  0.000371  0.000591  0.001357  0.000067
  5   -115.53027963  -0.0000003842  0.000364  0.000279  0.000696  0.000034
  6   -115.53028079  -0.0000011664  0.000052  0.000037  0.000151  0.000007
  7   -115.53028081  -0.0000000143  0.000030  0.000012  0.000050  0.000002
                 **** Energy Check signals convergence ****
              ***Rediagonalizing the Fockian in SOSCF/NRSCF***

               *****************************************************
               *                     SUCCESS                       *
               *           SCF CONVERGED AFTER   8 CYCLES          *
               *****************************************************

Setting up the final grid:

General Integration Accuracy     IntAcc      ...  4.670
Radial Grid Type                 RadialGrid  ... Gauss-Chebyshev
Angular Grid (max. acc.)         AngularGrid ... Lebedev-302
Angular grid pruning method      GridPruning ... 3 (G Style)
Weight generation scheme         WeightScheme... Becke
Basis function cutoff            BFCut       ...    1.0000e-11
Integration weight cutoff        WCut        ...    1.0000e-14
Grids for H and He will be reduced by one unit

# of grid points (after initial pruning)     ...  26000 (   0.0 sec)
# of grid points (after weights+screening)   ...  25227 (   0.0 sec)
nearest neighbour list constructed           ...    0.0 sec
Grid point re-assignment to atoms done       ...    0.0 sec
Grid point division into batches done        ...    0.1 sec
Reduced shell lists constructed in    0.2 sec

Total number of grid points                  ...    25227
Total number of batches                      ...      397
Average number of points per batch           ...       63
Average number of grid points per atom       ...     4204
Average number of shells per batch           ...    19.77 (82.36%)
Average number of basis functions per batch  ...    39.35 (81.99%)
Average number of large shells per batch     ...    17.41 (88.10%)
Average number of large basis fcns per batch ...    34.00 (86.39%)
Maximum spatial batch extension              ...  19.14, 20.64, 20.64 au
Average spatial batch extension              ...   3.10,  3.04,  3.06 au

Final grid set up in    0.2 sec
Final integration                            ... done (   0.2 sec)
Change in XC energy                          ...     0.000043591
Integrated number of electrons               ...    18.000009723
Previous integrated no of electrons          ...    17.997437685
Total Energy       :         -115.53023722 Eh           -3143.73758 eV
  Last Energy change         ...   -5.7208e-09  Tolerance :   1.0000e-08
  Last MAX-Density change    ...    1.2395e-06  Tolerance :   1.0000e-07
             **** THE GBW FILE WAS UPDATED (ORCAjob.gbw) ****
             **** DENSITY FILE WAS UPDATED (ORCAjob.scfp.tmp) ****
             **** ENERGY FILE WAS UPDATED (ORCAjob.en.tmp) ****
Total SCF time: 0 days 0 hours 0 min 2 sec 

-------------------------   --------------------
FINAL SINGLE POINT ENERGY      -115.530237223019
-------------------------   --------------------

------------------------------------------------------------------------------
                         ORCA SCF GRADIENT CALCULATION
------------------------------------------------------------------------------

Gradient of the Kohn-Sham DFT energy:
Kohn-Sham wavefunction type      ... RKS
Hartree-Fock exchange scaling    ...    0.200
Number of operators              ...    1
Number of atoms                  ...    6
Basis set dimensions             ...   48
Integral neglect threshold       ... 2.5e-11
Integral primitive cutoff        ... 2.5e-12

Nuclear repulsion gradient       ... done
One Electron Gradient            ... done
Pre-screening matrix             ... done
Starting the two electron gradient:
Two electron gradient done
Exchange-correlation gradient    ... done

------------------
CARTESIAN GRADIENT
------------------

   1   C   :   -0.074367431    0.003838717   -0.000002042
   2   O   :    0.069125962    0.020688276    0.000000060
   3   H   :   -0.001692715    0.002574309    0.000000100
   4   H   :   -0.004810646   -0.001838274   -0.002937459
   5   H   :   -0.004810052   -0.001839236    0.002939340
[...]
      pz      :     0.012523  p :     0.062808
      px      :     0.013368
      py      :     0.036916
  3 H s       :     0.929906  s :     0.929906
      pz      :     0.031466  p :     0.061881
      px      :     0.012645
      py      :     0.017770
  4 H s       :     0.929905  s :     0.929905
      pz      :     0.031466  p :     0.061880
      px      :     0.012645
      py      :     0.017770
  5 H s       :     0.743770  s :     0.743770
      pz      :     0.055058  p :     0.180570
      px      :     0.038598
      py      :     0.086915


                      *****************************
                      * MAYER POPULATION ANALYSIS *
                      *****************************

  NA   - Mulliken gross atomic population
  ZA   - Total nuclear charge
  QA   - Mulliken gross atomic charge
  VA   - Mayer's total valence
  BVA  - Mayer's bonded valence
  FA   - Mayer's free valence

  ATOM       NA         ZA         QA         VA         BVA        FA
  0 C      5.8490     6.0000     0.1510     3.9782     3.9782    -0.0000
  1 O      8.3322     8.0000    -0.3322     2.0636     2.0636    -0.0000
  2 H      1.0009     1.0000    -0.0009     0.9765     0.9765    -0.0000
  3 H      0.9907     1.0000     0.0093     0.9767     0.9767    -0.0000
  4 H      0.9907     1.0000     0.0093     0.9767     0.9767    -0.0000
  5 H      0.8366     1.0000     0.1634     1.0110     1.0110    -0.0000

  Mayer bond orders larger than 0.1
B(  0-C ,  1-O ) :   1.0398 B(  0-C ,  2-H ) :   0.9797 B(  0-C ,  3-H ) :   0.9728 
B(  0-C ,  4-H ) :   0.9728 B(  1-O ,  5-H ) :   0.9893 

-------
TIMINGS
-------

Total SCF time: 0 days 0 hours 0 min 1 sec 

Total time                  ....       1.496 sec
Sum of individual times     ....       1.491 sec  ( 99.6%)

Fock matrix formation       ....       1.228 sec  ( 82.1%)
  XC integration            ....       0.368 sec  ( 30.0% of F)
    Basis function eval.    ....       0.229 sec  ( 62.1% of XC)
    Density eval.           ....       0.036 sec  (  9.7% of XC)
    XC-Functional eval.     ....       0.041 sec  ( 11.1% of XC)
    XC-Potential eval.      ....       0.051 sec  ( 13.9% of XC)
Diagonalization             ....       0.000 sec  (  0.0%)
Density matrix formation    ....       0.000 sec  (  0.0%)
Population analysis         ....       0.001 sec  (  0.1%)
Initial guess               ....       0.000 sec  (  0.0%)
Orbital Transformation      ....       0.000 sec  (  0.0%)
Orbital Orthonormalization  ....       0.000 sec  (  0.0%)
DIIS solution               ....       0.000 sec  (  0.0%)
SOSCF solution              ....       0.022 sec  (  1.5%)
Grid generation             ....       0.239 sec  ( 16.0%)

-------------------------   --------------------
FINAL SINGLE POINT ENERGY      -115.563427804230
-------------------------   --------------------

                                *** OPTIMIZATION RUN DONE ***

                            ***************************************
                            *     ORCA property calculations      *
                            ***************************************

                                    ---------------------
                                    Active property flags
                                    ---------------------
   (+) Dipole Moment


------------------------------------------------------------------------------
                       ORCA ELECTRIC PROPERTIES CALCULATION
------------------------------------------------------------------------------

Dipole Moment Calculation                       ... on
Quadrupole Moment Calculation                   ... off
Polarizability Calculation                      ... off
GBWName                                         ... ORCAjob.gbw
Electron density file                           ... ORCAjob.scfp.tmp
The origin for moment calculation is the CENTER OF MASS  = (-1.115681, -0.067070 -0.000129)

-------------
DIPOLE MOMENT
-------------
                                X             Y             Z
Electronic contribution:      1.89337       0.22810      -0.00003
Nuclear contribution   :     -2.17682      -0.85277       0.00006
                        -----------------------------------------
Total Dipole Moment    :     -0.28345      -0.62467       0.00003
                        -----------------------------------------
Magnitude (a.u.)       :      0.68597
Magnitude (Debye)      :      1.74360


----------------------------------------------------------------------------
                           ORCA NUMERICAL FREQUENCIES
----------------------------------------------------------------------------

Number of atoms                ... 6
Central differences            ... used
Number of displacements        ... 36
Numerical increment            ...  0.005 bohr
IR-spectrum generation         ... on
Raman-spectrum generation      ... off
Surface Crossing Hessian       ... off

The output will be reduced. Please look at the following files:
SCF program output             ... >ORCAjob.lastscf
Integral program output        ... >ORCAjob.lastint
Gradient program output        ... >ORCAjob.lastgrad
Dipole moment program output   ... >ORCAjob.lastmom


         <<<Energy and Gradient at the input geometry>>>
             <<<Displacing   1/coordinate 1 (+)>>>
             <<<Displacing   1/coordinate 1 (-)>>>
             <<<Displacing   1/coordinate 2 (+)>>>
             <<<Displacing   1/coordinate 2 (-)>>>
             <<<Displacing   1/coordinate 3 (+)>>>
             <<<Displacing   1/coordinate 3 (-)>>>
             <<<Displacing   2/coordinate 1 (+)>>>
             <<<Displacing   2/coordinate 1 (-)>>>
             <<<Displacing   2/coordinate 2 (+)>>>
             <<<Displacing   2/coordinate 2 (-)>>>
             <<<Displacing   2/coordinate 3 (+)>>>
             <<<Displacing   2/coordinate 3 (-)>>>
             <<<Displacing   3/coordinate 1 (+)>>>
             <<<Displacing   3/coordinate 1 (-)>>>
             <<<Displacing   3/coordinate 2 (+)>>>
             <<<Displacing   3/coordinate 2 (-)>>>
             <<<Displacing   3/coordinate 3 (+)>>>
             <<<Displacing   3/coordinate 3 (-)>>>
             <<<Displacing   4/coordinate 1 (+)>>>
             <<<Displacing   4/coordinate 1 (-)>>>
             <<<Displacing   4/coordinate 2 (+)>>>
             <<<Displacing   4/coordinate 2 (-)>>>
             <<<Displacing   4/coordinate 3 (+)>>>
             <<<Displacing   4/coordinate 3 (-)>>>
             <<<Displacing   5/coordinate 1 (+)>>>
             <<<Displacing   5/coordinate 1 (-)>>>
             <<<Displacing   5/coordinate 2 (+)>>>
             <<<Displacing   5/coordinate 2 (-)>>>
             <<<Displacing   5/coordinate 3 (+)>>>
             <<<Displacing   5/coordinate 3 (-)>>>
             <<<Displacing   6/coordinate 1 (+)>>>
             <<<Displacing   6/coordinate 1 (-)>>>
             <<<Displacing   6/coordinate 2 (+)>>>
             <<<Displacing   6/coordinate 2 (-)>>>
             <<<Displacing   6/coordinate 3 (+)>>>
             <<<Displacing   6/coordinate 3 (-)>>>

-----------------------
VIBRATIONAL FREQUENCIES
-----------------------

   0:         0.00 cm**-1
   1:         0.00 cm**-1
   2:         0.00 cm**-1
   3:         0.00 cm**-1
   4:         0.00 cm**-1
   5:         0.00 cm**-1
   6:      -341.72 cm**-1 ***imaginary mode***
   7:      1066.79 cm**-1
   8:      1096.71 cm**-1
   9:      1183.75 cm**-1
  10:      1349.31 cm**-1
  11:      1458.32 cm**-1
  12:      1481.23 cm**-1
  13:      1492.94 cm**-1
  14:      2981.94 cm**-1
  15:      3044.10 cm**-1
  16:      3060.67 cm**-1
  17:      3864.40 cm**-1


------------
NORMAL MODES
------------

These modes are the cartesian displacements weighted by the diagonal matrix
M(i,i)=1/sqrt(m[i]) where m[i] is the mass of the displaced atom
Thus, these vectors are normalized but *not* orthogonal

                  0          1          2          3          4          5    
      0       0.000000   0.000000   0.000000   0.000000   0.000000   0.000000
      1       0.000000   0.000000   0.000000   0.000000   0.000000   0.000000
      2       0.000000   0.000000   0.000000   0.000000   0.000000   0.000000
      3       0.000000   0.000000   0.000000   0.000000   0.000000   0.000000
      4       0.000000   0.000000   0.000000   0.000000   0.000000   0.000000
      5       0.000000   0.000000   0.000000   0.000000   0.000000   0.000000
      6       0.000000   0.000000   0.000000   0.000000   0.000000   0.000000
      7       0.000000   0.000000   0.000000   0.000000   0.000000   0.000000
      8       0.000000   0.000000   0.000000   0.000000   0.000000   0.000000
      9       0.000000   0.000000   0.000000   0.000000   0.000000   0.000000
     10       0.000000   0.000000   0.000000   0.000000   0.000000   0.000000
     11       0.000000   0.000000   0.000000   0.000000   0.000000   0.000000
     12       0.000000   0.000000   0.000000   0.000000   0.000000   0.000000
     13       0.000000   0.000000   0.000000   0.000000   0.000000   0.000000
     14       0.000000   0.000000   0.000000   0.000000   0.000000   0.000000
     15       0.000000   0.000000   0.000000   0.000000   0.000000   0.000000
     16       0.000000   0.000000   0.000000   0.000000   0.000000   0.000000
     17       0.000000   0.000000   0.000000   0.000000   0.000000   0.000000
                  6          7          8          9         10         11    
      0       0.000000   0.072546  -0.350557  -0.000005  -0.048378  -0.000004
      1      -0.000000  -0.070336  -0.095115   0.000006   0.119059  -0.000002
      2       0.020235   0.000003   0.000002   0.139238  -0.000006  -0.052956
      3      -0.000001  -0.100026   0.288953   0.000004  -0.003987  -0.000000
      4      -0.000003  -0.002311   0.041693  -0.000002  -0.080814   0.000000
      5      -0.071919   0.000001  -0.000002  -0.051436   0.000003  -0.009849
      6      -0.000005  -0.482911  -0.750831   0.000030   0.321143   0.000035
      7       0.000002   0.122761   0.054509  -0.000004  -0.009087  -0.000018
      8      -0.266294  -0.000007   0.000009  -0.308660   0.000013   0.707880
      9      -0.033068   0.309784  -0.019030  -0.619949  -0.233443  -0.310387
     10      -0.220779   0.234742   0.182858   0.090105  -0.187190  -0.386274
     11       0.140522  -0.052757  -0.028786  -0.199480   0.090497   0.047924
     12       0.033079   0.309842  -0.019039   0.619901  -0.233484   0.310405
     13       0.220781   0.234735   0.182860  -0.090133  -0.187171   0.386317
     14       0.140524   0.052733   0.028790  -0.199503  -0.090483   0.047939
     15       0.000006   0.586461   0.379758   0.000006   0.785510  -0.000006
     16       0.000041   0.282549   0.051374  -0.000006   0.247459  -0.000002
     17       0.885628  -0.000025  -0.000001  -0.135076  -0.000010  -0.016424
                 12         13         14         15         16         17    
      0       0.096282  -0.054655   0.046681  -0.000003   0.000010   0.001845
      1       0.026418   0.039258  -0.002988  -0.000011  -0.094380   0.002451
      2      -0.000003   0.000000  -0.000004  -0.094412   0.000012  -0.000000
      3       0.011217  -0.009140   0.002657   0.000000   0.000478  -0.026168
      4       0.011408   0.012260   0.000824   0.000000   0.002229   0.057467
      5      -0.000001  -0.000000  -0.000000   0.001558  -0.000000  -0.000002
      6      -0.670108  -0.048029  -0.171382   0.000041   0.262908   0.004145
      7       0.265975   0.019786  -0.513171   0.000125   0.796005  -0.013101
      8       0.000041   0.000011  -0.000004  -0.019379   0.000006   0.000000
      9      -0.305668   0.451315  -0.212569  -0.254659  -0.136023   0.004399
     10      -0.372539  -0.336630   0.270528   0.333947   0.155575  -0.002880
     11       0.041170   0.421337   0.483932   0.564772   0.318171  -0.007616
     12      -0.305637   0.451317  -0.212559   0.254653  -0.136095   0.004399
     13      -0.372502  -0.336614   0.270509  -0.333938   0.155666  -0.002881
     14      -0.041165  -0.421351  -0.483879   0.564721  -0.318312   0.007617
     15      -0.043900  -0.058288  -0.001895   0.000001   0.001508   0.380411
     16      -0.016801  -0.008907  -0.005336  -0.000002  -0.018025  -0.922459
     17       0.000002  -0.000001   0.000000  -0.009854   0.000003   0.000040


-----------
IR SPECTRUM
-----------

 Mode    freq (cm**-1)   T**2         TX         TY         TZ
-------------------------------------------------------------------
   7:      1066.79   80.096554  (  8.915197   0.784742  -0.000183)
   8:      1096.71   50.678327  ( -7.096267   0.566846   0.000117)
   9:      1183.75    0.273963  ( -0.000130  -0.000017  -0.523415)
  10:      1349.31   24.916313  (  4.861321   1.133078  -0.000010)
  11:      1458.32    1.132821  ( -0.000072   0.000075   1.064341)
  12:      1481.23   10.981905  (  2.841023  -1.706017   0.000042)
  13:      1492.94    5.930352  ( -2.234928  -0.967186   0.000013)
  14:      2981.94   58.305946  (  7.605632  -0.678459  -0.000512)
  15:      3044.10   58.986397  ( -0.000234  -0.000973  -7.680260)
  16:      3060.67   52.312947  (  0.139887  -7.231416   0.000830)
  17:      3864.40   39.467226  (  3.457490  -5.245282   0.000129)

The first frequency considered to be a vibration is 7
The total number of vibrations considered is 11


--------------------------
THERMOCHEMISTRY AT 298.15K
--------------------------

Temperature         ... 298.15 K
Pressure            ... 1.00 atm
Total Mass          ... 32.04 AMU

Throughout the following assumptions are being made:
  (1) The electronic state is orbitally nondegenerate
  (2) There are no thermally accessible electronically excited states
  (3) Hindered rotations indicated by low frequency modes are not
      treated as such but are treated as vibrations and this may
      cause some error
  (4) All equations used are the standard statistical mechanics
      equations for an ideal gas
  (5) All vibrations are strictly harmonic

freq.    1066.79  E(vib)   ...       0.02 
freq.    1096.71  E(vib)   ...       0.02 
freq.    1183.75  E(vib)   ...       0.01 
freq.    1349.31  E(vib)   ...       0.01 
freq.    1458.32  E(vib)   ...       0.00 
freq.    1481.23  E(vib)   ...       0.00 
freq.    1492.94  E(vib)   ...       0.00 
freq.    2981.94  E(vib)   ...       0.00 
freq.    3044.10  E(vib)   ...       0.00 
freq.    3060.67  E(vib)   ...       0.00 
freq.    3864.40  E(vib)   ...       0.00 

------------
INNER ENERGY
------------

The inner energy is: U= E(el) + E(ZPE) + E(vib) + E(rot) + E(trans)
    E(el)   - is the total energy from the electronic structure calculation
              = E(kin-el) + E(nuc-el) + E(el-el) + E(nuc-nuc)
    E(ZPE)  - the the zero temperature vibrational energy from the frequency calculation
    E(vib)  - the the finite temperature correction to E(ZPE) due to population
              of excited vibrational states
    E(rot)  - is the rotational thermal energy
    E(trans)- is the translational thermal energy

Summary of contributions to the inner energy U:
Electronic energy                ...   -115.56342781 Eh
Zero point energy                ...      0.05030232 Eh      31.57 kcal/mol
Thermal vibrational correction   ...      0.00009695 Eh       0.06 kcal/mol
Thermal rotational correction    ...      0.00141627 Eh       0.89 kcal/mol
Thermal translational correction ...      0.00141627 Eh       0.89 kcal/mol
-----------------------------------------------------------------------
Total thermal energy                   -115.51019599 Eh


Summary of corrections to the electronic energy:
(perhaps to be used in another calculation)
Total thermal correction                  0.00292950 Eh       1.84 kcal/mol
Non-thermal (ZPE) correction              0.05030232 Eh      31.57 kcal/mol
-----------------------------------------------------------------------
Total correction                          0.05323181 Eh      33.40 kcal/mol


--------
ENTHALPY
--------

The enthalpy is H = U + kB*T
                kB is Boltzmann's constant
Total free energy                 ...   -115.51019599 Eh 
Thermal Enthalpy correction       ...      0.00094421 Eh       0.59 kcal/mol
-----------------------------------------------------------------------
Total Enthalpy                    ...   -115.50925178 Eh


Vibrational entropy computed according to the QRRHO of S. Grimme
Chem.Eur.J. 2012 18 9955


-------
ENTROPY
-------

The entropy contributions are T*S = T*(S(el)+S(vib)+S(rot)+S(trans)
     S(el)   - electronic entropy
     S(vib)  - vibrational entropy
     S(rot)  - rotational entropy
     S(trans)- translational entropy
The entropies will be listed as mutliplied by the temperature to get
units of energy

Electronic entropy                ...      0.00000000 Eh      0.00 kcal/mol
Vibrational entropy               ...      0.00011407 Eh      0.07 kcal/mol
Rotational entropy                ...      0.00798588 Eh      5.01 kcal/mol
Translational entropy             ...      0.01725935 Eh     10.83 kcal/mol
-----------------------------------------------------------------------
Final entropy term                ...      0.02535930 Eh     15.91 kcal/mol


CAUTION: The rotational entropy is not quite correctly treated here
         because it includes a symmetry number that is not yet correctly
         implemented in ORCA!
For a nonlinear molecule the correct rotational entropy is:
    S(rot) = R*(ln(qrot/sn)+1.5)
    R    = 8.31441 J/mol/K = 1.987191683e-3 kcal/mol/K
    qrot = 3154.5613810
    sn is the rotational symmetry number. We have assumed 3 here
       if it is different for your molecule then you should correct
       the printed rotational entropy by manually evaluating the equation
       as given above

For convenience we print out the resulting values for sn=1 - 12:
 sn= 1  qrot/sn=    3154.5614 T*S(rot)=     5.66 kcal/mol T*S(tot)=    16.56 kcal/mol
 sn= 2  qrot/sn=    1577.2807 T*S(rot)=     5.25 kcal/mol T*S(tot)=    16.15 kcal/mol
 sn= 3  qrot/sn=    1051.5205 T*S(rot)=     5.01 kcal/mol T*S(tot)=    15.91 kcal/mol
 sn= 4  qrot/sn=     788.6403 T*S(rot)=     4.84 kcal/mol T*S(tot)=    15.74 kcal/mol
 sn= 5  qrot/sn=     630.9123 T*S(rot)=     4.71 kcal/mol T*S(tot)=    15.61 kcal/mol
 sn= 6  qrot/sn=     525.7602 T*S(rot)=     4.60 kcal/mol T*S(tot)=    15.50 kcal/mol
 sn= 7  qrot/sn=     450.6516 T*S(rot)=     4.51 kcal/mol T*S(tot)=    15.41 kcal/mol
 sn= 8  qrot/sn=     394.3202 T*S(rot)=     4.43 kcal/mol T*S(tot)=    15.33 kcal/mol
 sn= 9  qrot/sn=     350.5068 T*S(rot)=     4.36 kcal/mol T*S(tot)=    15.26 kcal/mol
 sn=10  qrot/sn=     315.4561 T*S(rot)=     4.30 kcal/mol T*S(tot)=    15.20 kcal/mol
 sn=11  qrot/sn=     286.7783 T*S(rot)=     4.24 kcal/mol T*S(tot)=    15.14 kcal/mol
 sn=12  qrot/sn=     262.8801 T*S(rot)=     4.19 kcal/mol T*S(tot)=    15.09 kcal/mol


-------------------
GIBBS FREE ENTHALPY
-------------------

The Gibbs free enthalpy is G = H - T*S

Total enthalpy                    ...   -115.50925178 Eh 
Total entropy correction          ...     -0.02535930 Eh    -15.91 kcal/mol
-----------------------------------------------------------------------
Final Gibbs free enthalpy         ...   -115.53461108 Eh

For completeness - the Gibbs free enthalpy minus the electronic energy
G-E(el)                           ...      0.02881673 Eh     18.08 kcal/mol


Total Time for Numerical Frequencies  :        99.303 sec

Timings for individual modules:

Sum of individual times         ...       29.060 sec (=   0.484 min)
GTO integral calculation        ...        1.876 sec (=   0.031 min)   6.5 %
SCF iterations                  ...       20.920 sec (=   0.349 min)  72.0 %
SCF Gradient evaluation         ...        6.153 sec (=   0.103 min)  21.2 %
Geometry relaxation             ...        0.111 sec (=   0.002 min)   0.4 %
                             ****ORCA TERMINATED NORMALLY****
TOTAL RUN TIME: 0 days 0 hours 2 minutes 7 seconds 221 msec
