 DBCSR| Multiplication driver                                               BLAS
 DBCSR| Multrec recursion limit                                              512
 DBCSR| Multiplication stack size                                           1000
 DBCSR| Maximum elements for images                                    UNLIMITED
 DBCSR| Multiplicative factor virtual images                                   1
 DBCSR| Multiplication size stacks                                             3


  **** **** ******  **  PROGRAM STARTED AT               2020-03-19 17:54:51.472
 ***** ** ***  *** **   PROGRAM STARTED ON                     bass-macbook.home
 **    ****   ******    PROGRAM STARTED BY                              bvanbeek
 ***** **    ** ** **   PROGRAM PROCESS ID                                 85942
  **** **  *******  **  PROGRAM STARTED IN /Users/bvanbeek/Documents/GitHub/qmfl
                                           ows/test/test_files/plams_workdir.006
                                           /cp2k_mm_opt

 CP2K| version string:                                          CP2K version 6.1
 CP2K| source code revision number:                                    svn:18464
 CP2K| cp2kflags: omp no_statm_access accelerate                                
 CP2K| is freely available from                            https://www.cp2k.org/
 CP2K| Program compiled at                         Fri Apr 19 11:24:34 CEST 2019
 CP2K| Program compiled on                                         192.168.1.124
 CP2K| Program compiled for                       Darwin-IntelMacintosh-gfortran
 CP2K| Data directory path            /Users/bvanbeek/Documents/GitHub/cp2k/data
 CP2K| Input file name                                            cp2k_mm_opt.in

 GLOBAL| Force Environment number                                              1
 GLOBAL| Basis set file name                                           BASIS_SET
 GLOBAL| Potential file name                                           POTENTIAL
 GLOBAL| MM Potential file name                                     MM_POTENTIAL
 GLOBAL| Coordinate file name                                      __STD_INPUT__
 GLOBAL| Method name                                                        CP2K
 GLOBAL| Project name                                                       cp2k
 GLOBAL| Preferred FFT library                                             FFTW3
 GLOBAL| Preferred diagonalization lib.                                       SL
 GLOBAL| Run type                                                        GEO_OPT
 GLOBAL| All-to-all communication in single precision                          F
 GLOBAL| FFTs using library dependent lengths                                  F
 GLOBAL| Global print level                                                  LOW
 GLOBAL| Total number of message passing processes                             1
 GLOBAL| Number of threads for this process                                    4
 GLOBAL| This output is from process                                           0
 GLOBAL| CPU model name : UNKNOWN

 MEMORY| system memory details [Kb]
 MEMORY|                        rank 0           min           max       average
 MEMORY| MemTotal                    0             0             0             0
 MEMORY| MemFree                     0             0             0             0
 MEMORY| Buffers                     0             0             0             0
 MEMORY| Cached                      0             0             0             0
 MEMORY| Slab                        0             0             0             0
 MEMORY| SReclaimable                0             0             0             0
 MEMORY| MemLikelyFree               0             0             0             0

 WARNING : FFT library FFTW3 is not available  Trying FFTSG as a default


                      ************* ******** ***********   
                     ************* **********************  
                     ****     **** ****      ***********   
                     ******** ****  *******     ****       
                     *******  ****   *******   ****        
                     ****     ****       ****  ****        
                     ****     **** **********  ****        
                      ****     **** ********    ****       
                     FRONTIERS IN SIMULATION TECHNOLOGY    
                                                           
                        C.J. Mundy, S. Balasubramanian,    
                     Ken Bagchi, J. Hutter, Ari Seitsonen  
                      IFW Kuo, T. Laino, J. VandeVondele   
                                 Version 1.0               

                                                           

 EWALD|                                                                 not used
     CHM BOND            1 C2O3 C331    200.00000000000000        1.5220000000000000     
     CHM BOND            2 C331 HGA3    322.00000000000000        1.1110000000000000     
     CHM BOND            3 C2O3 O2D2    525.00000000000000        1.2600000000000000     
     CHM BEND            1 O2D2 C2O3 C331    40.000000000000000        116.00000000000000     
     CHM BEND            2 C2O3 C331 HGA3    33.000000000000000        109.50000000000000     
     CHM BEND            3 HGA3 C331 HGA3    35.500000000000000        108.40000000000001     
     CHM BEND            4 O2D2 C2O3 O2D2    100.00000000000000        128.00000000000000     
     CHM TORSION            1 O2D2 C2O3 C331 HGA3    5.0000000000000003E-002           6   180.00000000000000     
     CHM IMPROPERS            1 C2O3 C331 O2D2 O2D2    107.00000000000000        0.0000000000000000     
     CHM NONBOND            1 C2O3   -7.0000000000000007E-002   2.0000000000000000     
     CHM NONBOND            2 C331   -7.8000000000000000E-002   2.0499999999999998     
     CHM NONBOND            3 HGA3   -2.4000000000000000E-002   1.3400000000000001     
     CHM NONBOND            4 O2D2  -0.12000000000000000        1.7000000000000000     

 FORCEFIELD| WARNING: A non Critical ForceField parameter is missing! CP2K GOES!
 FORCEFIELD| Non critical parameters are:Urey-Bradley,Torsions,Impropers, Opbends and 1-4
 FORCEFIELD| All missing parameters will not contribute to the potential energy!

 FORCEFIELD| Missing Urey-Bradley      (C2O3,C331,HGA3)                         
 FORCEFIELD| Missing Urey-Bradley      (O2D2,C2O3,C331)                         
 FORCEFIELD| Missing Urey-Bradley      (O2D2,C2O3,O2D2)                         
 FORCEFIELD| Missing Urey-Bradley      (HGA3,C331,HGA3)                         
 FORCEFIELD| Missing Out of plane bend (C331,O2D2,O2D2,C2O3)                    
 Charge Checking ::C2O3CD                                                                              
 Charge Checking ::CDCD                                                                              

 *** WARNING in force_fields_all.F:3322 :: Multiple Charge declarations: ( ***
 *** CD ) overwriting!                                                     ***

 Charge Checking ::O2D2CD                                                                              
 Charge Checking ::SECD                                                                              
 Charge Checking ::C2O3SE                                                                              
 Charge Checking ::CDSE                                                                              
 Charge Checking ::O2D2SE                                                                              
 Charge Checking ::SESE                                                                              

 *** WARNING in force_fields_all.F:3322 :: Multiple Charge declarations: ( ***
 *** SE ) overwriting!                                                     ***

 Charge Checking ::C2O3C331                                                                            
 Charge Checking ::CDC331                                                                            
 Charge Checking ::O2D2C331                                                                            
 Charge Checking ::SEC331                                                                            
 Charge Checking ::C2O3C2O3                                                                            

 *** WARNING in force_fields_all.F:3322 :: Multiple Charge declarations: ( ***
 *** C2O3 ) overwriting!                                                   ***

 Charge Checking ::CDC2O3                                                                            
 Charge Checking ::O2D2C2O3                                                                            
 Charge Checking ::SEC2O3                                                                            
 Charge Checking ::C2O3O2D2                                                                            
 Charge Checking ::CDO2D2                                                                            
 Charge Checking ::O2D2O2D2                                                                            

 *** WARNING in force_fields_all.F:3322 :: Multiple Charge declarations: ( ***
 *** O2D2 ) overwriting!                                                   ***

 Charge Checking ::SEO2D2                                                                            
 Charge Checking ::C2O3HGA3                                                                            
 Charge Checking ::CDHGA3                                                                            
 Charge Checking ::O2D2HGA3                                                                            
 Charge Checking ::SEHGA3                                                                            
 CHARGE_INFO| Total Charge of the Classical System:                     0.000000
 Matching kinds for MM_RADIUS :: 'CD' with 'C2O3'
 Matching kinds for MM_RADIUS :: 'CD' with 'C331'
 Matching kinds for MM_RADIUS :: 'CD' with 'CD'
 Matching kinds for MM_RADIUS :: 'CD' with 'HGA3'
 Matching kinds for MM_RADIUS :: 'CD' with 'O2D2'
 Matching kinds for MM_RADIUS :: 'CD' with 'SE'
 Matching kinds for MM_RADIUS :: 'SE' with 'C2O3'
 Matching kinds for MM_RADIUS :: 'SE' with 'C331'
 Matching kinds for MM_RADIUS :: 'SE' with 'CD'
 Matching kinds for MM_RADIUS :: 'SE' with 'HGA3'
 Matching kinds for MM_RADIUS :: 'SE' with 'O2D2'
 Matching kinds for MM_RADIUS :: 'SE' with 'SE'
 Matching kinds for MM_RADIUS :: 'C331' with 'C2O3'
 Matching kinds for MM_RADIUS :: 'C331' with 'C331'
 Matching kinds for MM_RADIUS :: 'C331' with 'CD'
 Matching kinds for MM_RADIUS :: 'C331' with 'HGA3'
 Matching kinds for MM_RADIUS :: 'C331' with 'O2D2'
 Matching kinds for MM_RADIUS :: 'C331' with 'SE'
 Matching kinds for MM_RADIUS :: 'C2O3' with 'C2O3'
 Matching kinds for MM_RADIUS :: 'C2O3' with 'C331'
 Matching kinds for MM_RADIUS :: 'C2O3' with 'CD'
 Matching kinds for MM_RADIUS :: 'C2O3' with 'HGA3'
 Matching kinds for MM_RADIUS :: 'C2O3' with 'O2D2'
 Matching kinds for MM_RADIUS :: 'C2O3' with 'SE'
 Matching kinds for MM_RADIUS :: 'O2D2' with 'C2O3'
 Matching kinds for MM_RADIUS :: 'O2D2' with 'C331'
 Matching kinds for MM_RADIUS :: 'O2D2' with 'CD'
 Matching kinds for MM_RADIUS :: 'O2D2' with 'HGA3'
 Matching kinds for MM_RADIUS :: 'O2D2' with 'O2D2'
 Matching kinds for MM_RADIUS :: 'O2D2' with 'SE'
 Matching kinds for MM_RADIUS :: 'HGA3' with 'C2O3'
 Matching kinds for MM_RADIUS :: 'HGA3' with 'C331'
 Matching kinds for MM_RADIUS :: 'HGA3' with 'CD'
 Matching kinds for MM_RADIUS :: 'HGA3' with 'HGA3'
 Matching kinds for MM_RADIUS :: 'HGA3' with 'O2D2'
 Matching kinds for MM_RADIUS :: 'HGA3' with 'SE'
 Total number of particles with a shell ::            0

 FORCEFIELD| WARNING: A non Critical ForceField parameter is missing! CP2K GOES!
 FORCEFIELD| Non critical parameters are:Urey-Bradley,Torsions,Impropers, Opbends and 1-4
 FORCEFIELD| All missing parameters will not contribute to the potential energy!

 FORCEFIELD| Missing Spline_Bond_Env   (  CD,  CD)                              
                                                                                
                                                                                
                                                                                
                                                                                
                                                                                
                                                                                
                                                                                
                                                                                
                                                                                
                                                                                

 SPLINE_INFO| Generating 21 splines for NONBONDED14 interactions 
              Due to 6 different atomic kinds
  ...2  ...4  ...6  ...8  ...10  ...12  ...14  ...16  ...18  ...20
 SPLINE_INFO| Number of unique splines computed:            11
 SPLINE_INFO| Done
     TESTING CDCD with CDC2O3
     TESTING CDCD with CDC331
     TESTING CDCD with CDCD
     FOUND CD CD
     TESTING CDCD with CDHGA3
     TESTING CDCD with CDO2D2
     TESTING CDCD with CDSE
     TESTING CDCD with SEC2O3
     TESTING CDCD with SEC331
     TESTING CDCD with SEHGA3
     TESTING CDCD with SEO2D2
     TESTING CDCD with SESE
     TESTING CDSE with CDC2O3
     TESTING CDSE with CDC331
     TESTING CDSE with CDCD
     TESTING CDSE with CDHGA3
     TESTING CDSE with CDO2D2
     TESTING CDSE with CDSE
     FOUND CD SE
     TESTING CDSE with SEC2O3
     TESTING CDSE with SEC331
     TESTING CDSE with SEHGA3
     TESTING CDSE with SEO2D2
     TESTING CDSE with SESE
     TESTING CDC331 with CDC2O3
     TESTING CDC331 with CDC331
     FOUND CD C331
     TESTING CDC331 with CDCD
     TESTING CDC331 with CDHGA3
     TESTING CDC331 with CDO2D2
     TESTING CDC331 with CDSE
     TESTING CDC331 with SEC2O3
     TESTING CDC331 with SEC331
     TESTING CDC331 with SEHGA3
     TESTING CDC331 with SEO2D2
     TESTING CDC331 with SESE
     TESTING CDC2O3 with CDC2O3
     FOUND CD C2O3
     TESTING CDC2O3 with CDC331
     TESTING CDC2O3 with CDCD
     TESTING CDC2O3 with CDHGA3
     TESTING CDC2O3 with CDO2D2
     TESTING CDC2O3 with CDSE
     TESTING CDC2O3 with SEC2O3
     TESTING CDC2O3 with SEC331
     TESTING CDC2O3 with SEHGA3
     TESTING CDC2O3 with SEO2D2
     TESTING CDC2O3 with SESE
     TESTING CDO2D2 with CDC2O3
     TESTING CDO2D2 with CDC331
     TESTING CDO2D2 with CDCD
     TESTING CDO2D2 with CDHGA3
     TESTING CDO2D2 with CDO2D2
     FOUND CD O2D2
     TESTING CDO2D2 with CDSE
     TESTING CDO2D2 with SEC2O3
     TESTING CDO2D2 with SEC331
     TESTING CDO2D2 with SEHGA3
     TESTING CDO2D2 with SEO2D2
     TESTING CDO2D2 with SESE
     TESTING CDHGA3 with CDC2O3
     TESTING CDHGA3 with CDC331
     TESTING CDHGA3 with CDCD
     TESTING CDHGA3 with CDHGA3
     FOUND CD HGA3
     TESTING CDHGA3 with CDO2D2
     TESTING CDHGA3 with CDSE
     TESTING CDHGA3 with SEC2O3
     TESTING CDHGA3 with SEC331
     TESTING CDHGA3 with SEHGA3
     TESTING CDHGA3 with SEO2D2
     TESTING CDHGA3 with SESE
     TESTING SESE with CDC2O3
     TESTING SESE with CDC331
     TESTING SESE with CDCD
     TESTING SESE with CDHGA3
     TESTING SESE with CDO2D2
     TESTING SESE with CDSE
     TESTING SESE with SEC2O3
     TESTING SESE with SEC331
     TESTING SESE with SEHGA3
     TESTING SESE with SEO2D2
     TESTING SESE with SESE
     FOUND SE SE
     TESTING SEC331 with CDC2O3
     TESTING SEC331 with CDC331
     TESTING SEC331 with CDCD
     TESTING SEC331 with CDHGA3
     TESTING SEC331 with CDO2D2
     TESTING SEC331 with CDSE
     TESTING SEC331 with SEC2O3
     TESTING SEC331 with SEC331
     FOUND SE C331
     TESTING SEC331 with SEHGA3
     TESTING SEC331 with SEO2D2
     TESTING SEC331 with SESE
     TESTING SEC2O3 with CDC2O3
     TESTING SEC2O3 with CDC331
     TESTING SEC2O3 with CDCD
     TESTING SEC2O3 with CDHGA3
     TESTING SEC2O3 with CDO2D2
     TESTING SEC2O3 with CDSE
     TESTING SEC2O3 with SEC2O3
     FOUND SE C2O3
     TESTING SEC2O3 with SEC331
     TESTING SEC2O3 with SEHGA3
     TESTING SEC2O3 with SEO2D2
     TESTING SEC2O3 with SESE
     TESTING SEO2D2 with CDC2O3
     TESTING SEO2D2 with CDC331
     TESTING SEO2D2 with CDCD
     TESTING SEO2D2 with CDHGA3
     TESTING SEO2D2 with CDO2D2
     TESTING SEO2D2 with CDSE
     TESTING SEO2D2 with SEC2O3
     TESTING SEO2D2 with SEC331
     TESTING SEO2D2 with SEHGA3
     TESTING SEO2D2 with SEO2D2
     FOUND SE O2D2
     TESTING SEO2D2 with SESE
     TESTING SEHGA3 with CDC2O3
     TESTING SEHGA3 with CDC331
     TESTING SEHGA3 with CDCD
     TESTING SEHGA3 with CDHGA3
     TESTING SEHGA3 with CDO2D2
     TESTING SEHGA3 with CDSE
     TESTING SEHGA3 with SEC2O3
     TESTING SEHGA3 with SEC331
     TESTING SEHGA3 with SEHGA3
     FOUND SE HGA3
     TESTING SEHGA3 with SEO2D2
     TESTING SEHGA3 with SESE
     TESTING C331C331 with CDC2O3
     TESTING C331C331 with CDC331
     TESTING C331C331 with CDCD
     TESTING C331C331 with CDHGA3
     TESTING C331C331 with CDO2D2
     TESTING C331C331 with CDSE
     TESTING C331C331 with SEC2O3
     TESTING C331C331 with SEC331
     TESTING C331C331 with SEHGA3
     TESTING C331C331 with SEO2D2
     TESTING C331C331 with SESE
     TESTING C331C2O3 with CDC2O3
     TESTING C331C2O3 with CDC331
     TESTING C331C2O3 with CDCD
     TESTING C331C2O3 with CDHGA3
     TESTING C331C2O3 with CDO2D2
     TESTING C331C2O3 with CDSE
     TESTING C331C2O3 with SEC2O3
     TESTING C331C2O3 with SEC331
     TESTING C331C2O3 with SEHGA3
     TESTING C331C2O3 with SEO2D2
     TESTING C331C2O3 with SESE
     TESTING C331O2D2 with CDC2O3
     TESTING C331O2D2 with CDC331
     TESTING C331O2D2 with CDCD
     TESTING C331O2D2 with CDHGA3
     TESTING C331O2D2 with CDO2D2
     TESTING C331O2D2 with CDSE
     TESTING C331O2D2 with SEC2O3
     TESTING C331O2D2 with SEC331
     TESTING C331O2D2 with SEHGA3
     TESTING C331O2D2 with SEO2D2
     TESTING C331O2D2 with SESE
     TESTING C331HGA3 with CDC2O3
     TESTING C331HGA3 with CDC331
     TESTING C331HGA3 with CDCD
     TESTING C331HGA3 with CDHGA3
     TESTING C331HGA3 with CDO2D2
     TESTING C331HGA3 with CDSE
     TESTING C331HGA3 with SEC2O3
     TESTING C331HGA3 with SEC331
     TESTING C331HGA3 with SEHGA3
     TESTING C331HGA3 with SEO2D2
     TESTING C331HGA3 with SESE
     TESTING C2O3C2O3 with CDC2O3
     TESTING C2O3C2O3 with CDC331
     TESTING C2O3C2O3 with CDCD
     TESTING C2O3C2O3 with CDHGA3
     TESTING C2O3C2O3 with CDO2D2
     TESTING C2O3C2O3 with CDSE
     TESTING C2O3C2O3 with SEC2O3
     TESTING C2O3C2O3 with SEC331
     TESTING C2O3C2O3 with SEHGA3
     TESTING C2O3C2O3 with SEO2D2
     TESTING C2O3C2O3 with SESE
     TESTING C2O3O2D2 with CDC2O3
     TESTING C2O3O2D2 with CDC331
     TESTING C2O3O2D2 with CDCD
     TESTING C2O3O2D2 with CDHGA3
     TESTING C2O3O2D2 with CDO2D2
     TESTING C2O3O2D2 with CDSE
     TESTING C2O3O2D2 with SEC2O3
     TESTING C2O3O2D2 with SEC331
     TESTING C2O3O2D2 with SEHGA3
     TESTING C2O3O2D2 with SEO2D2
     TESTING C2O3O2D2 with SESE
     TESTING C2O3HGA3 with CDC2O3
     TESTING C2O3HGA3 with CDC331
     TESTING C2O3HGA3 with CDCD
     TESTING C2O3HGA3 with CDHGA3
     TESTING C2O3HGA3 with CDO2D2
     TESTING C2O3HGA3 with CDSE
     TESTING C2O3HGA3 with SEC2O3
     TESTING C2O3HGA3 with SEC331
     TESTING C2O3HGA3 with SEHGA3
     TESTING C2O3HGA3 with SEO2D2
     TESTING C2O3HGA3 with SESE
     TESTING O2D2O2D2 with CDC2O3
     TESTING O2D2O2D2 with CDC331
     TESTING O2D2O2D2 with CDCD
     TESTING O2D2O2D2 with CDHGA3
     TESTING O2D2O2D2 with CDO2D2
     TESTING O2D2O2D2 with CDSE
     TESTING O2D2O2D2 with SEC2O3
     TESTING O2D2O2D2 with SEC331
     TESTING O2D2O2D2 with SEHGA3
     TESTING O2D2O2D2 with SEO2D2
     TESTING O2D2O2D2 with SESE
     TESTING O2D2HGA3 with CDC2O3
     TESTING O2D2HGA3 with CDC331
     TESTING O2D2HGA3 with CDCD
     TESTING O2D2HGA3 with CDHGA3
     TESTING O2D2HGA3 with CDO2D2
     TESTING O2D2HGA3 with CDSE
     TESTING O2D2HGA3 with SEC2O3
     TESTING O2D2HGA3 with SEC331
     TESTING O2D2HGA3 with SEHGA3
     TESTING O2D2HGA3 with SEO2D2
     TESTING O2D2HGA3 with SESE
     TESTING HGA3HGA3 with CDC2O3
     TESTING HGA3HGA3 with CDC331
     TESTING HGA3HGA3 with CDCD
     TESTING HGA3HGA3 with CDHGA3
     TESTING HGA3HGA3 with CDO2D2
     TESTING HGA3HGA3 with CDSE
     TESTING HGA3HGA3 with SEC2O3
     TESTING HGA3HGA3 with SEC331
     TESTING HGA3HGA3 with SEHGA3
     TESTING HGA3HGA3 with SEO2D2
     TESTING HGA3HGA3 with SESE

 SPLINE_INFO| Generating 21 splines for NONBONDED interactions 
              Due to 6 different atomic kinds
  ...2  ...4  ...6  ...8  ...10  ...12  ...14  ...16  ...18  ...20
 SPLINE_INFO| Number of unique splines computed:            19
 SPLINE_INFO| Done
       atom            1  Cd charge =   0.97680000000000000     
     Mol Kind MOL1 charge =   0.97680000000000000     
       atom            1  Se charge =  -0.97680000000000000     
     Mol Kind MOL2 charge =  -0.97680000000000000     
       atom            1  Cd charge =   0.97680000000000000     
     Mol Kind MOL1 charge =   0.97680000000000000     
       atom            1  Se charge =  -0.97680000000000000     
     Mol Kind MOL2 charge =  -0.97680000000000000     
       atom            1  C331 charge =  -0.34499999999999997     
       atom            2  C2O3 charge =   0.45240000000000002     
       atom            3  O2D2 charge =  -0.47039999999999998     
       atom            4  O2D2 charge =  -0.47039999999999998     
       atom            5  HGA3 charge =   0.11500000000000000     
       atom            6  HGA3 charge =   0.11500000000000000     
       atom            7  HGA3 charge =   0.11500000000000000     
     Mol Kind MOL3 charge =  -0.48839999999999995     
       atom            1  Cd charge =   0.97680000000000000     
       atom            2  Cd charge =   0.97680000000000000     
       atom            3  Cd charge =   0.97680000000000000     
       atom            4  Cd charge =   0.97680000000000000     
       atom            5  Cd charge =   0.97680000000000000     
       atom            6  Cd charge =   0.97680000000000000     
       atom            7  Cd charge =   0.97680000000000000     
       atom            8  Cd charge =   0.97680000000000000     
       atom            9  Cd charge =   0.97680000000000000     
       atom           10  Cd charge =   0.97680000000000000     
       atom           11  Cd charge =   0.97680000000000000     
       atom           12  Cd charge =   0.97680000000000000     
       atom           13  Cd charge =   0.97680000000000000     
       atom           14  Cd charge =   0.97680000000000000     
       atom           15  Cd charge =   0.97680000000000000     
       atom           16  Cd charge =   0.97680000000000000     
       atom           17  Se charge =  -0.97680000000000000     
       atom           18  Se charge =  -0.97680000000000000     
       atom           19  Se charge =  -0.97680000000000000     
       atom           20  Se charge =  -0.97680000000000000     
       atom           21  Se charge =  -0.97680000000000000     
       atom           22  Se charge =  -0.97680000000000000     
       atom           23  Se charge =  -0.97680000000000000     
       atom           24  Se charge =  -0.97680000000000000     
       atom           25  Se charge =  -0.97680000000000000     
       atom           26  Se charge =  -0.97680000000000000     
       atom           27  Se charge =  -0.97680000000000000     
       atom           28  Se charge =  -0.97680000000000000     
       atom           29  Se charge =  -0.97680000000000000     
       atom           30  Cd charge =   0.97680000000000000     
       atom           31  Cd charge =   0.97680000000000000     
       atom           32  Cd charge =   0.97680000000000000     
       atom           33  Cd charge =   0.97680000000000000     
       atom           34  Cd charge =   0.97680000000000000     
       atom           35  Cd charge =   0.97680000000000000     
       atom           36  Cd charge =   0.97680000000000000     
       atom           37  Cd charge =   0.97680000000000000     
       atom           38  Cd charge =   0.97680000000000000     
       atom           39  Cd charge =   0.97680000000000000     
       atom           40  Cd charge =   0.97680000000000000     
       atom           41  Cd charge =   0.97680000000000000     
       atom           42  Cd charge =   0.97680000000000000     
       atom           43  Cd charge =   0.97680000000000000     
       atom           44  Cd charge =   0.97680000000000000     
       atom           45  Cd charge =   0.97680000000000000     
       atom           46  Cd charge =   0.97680000000000000     
       atom           47  Cd charge =   0.97680000000000000     
       atom           48  Cd charge =   0.97680000000000000     
       atom           49  Cd charge =   0.97680000000000000     
       atom           50  Cd charge =   0.97680000000000000     
       atom           51  Cd charge =   0.97680000000000000     
       atom           52  Cd charge =   0.97680000000000000     
       atom           53  Cd charge =   0.97680000000000000     
       atom           54  Cd charge =   0.97680000000000000     
       atom           55  Cd charge =   0.97680000000000000     
       atom           56  Cd charge =   0.97680000000000000     
       atom           57  Cd charge =   0.97680000000000000     
       atom           58  Cd charge =   0.97680000000000000     
       atom           59  Cd charge =   0.97680000000000000     
       atom           60  Cd charge =   0.97680000000000000     
       atom           61  Cd charge =   0.97680000000000000     
       atom           62  Cd charge =   0.97680000000000000     
       atom           63  Cd charge =   0.97680000000000000     
       atom           64  Cd charge =   0.97680000000000000     
       atom           65  Cd charge =   0.97680000000000000     
       atom           66  Cd charge =   0.97680000000000000     
       atom           67  Cd charge =   0.97680000000000000     
       atom           68  Cd charge =   0.97680000000000000     
       atom           69  Cd charge =   0.97680000000000000     
       atom           70  Cd charge =   0.97680000000000000     
       atom           71  Cd charge =   0.97680000000000000     
       atom           72  Cd charge =   0.97680000000000000     
       atom           73  Cd charge =   0.97680000000000000     
       atom           74  Cd charge =   0.97680000000000000     
       atom           75  Cd charge =   0.97680000000000000     
       atom           76  Cd charge =   0.97680000000000000     
       atom           77  Cd charge =   0.97680000000000000     
       atom           78  Cd charge =   0.97680000000000000     
       atom           79  Cd charge =   0.97680000000000000     
       atom           80  Cd charge =   0.97680000000000000     
       atom           81  Cd charge =   0.97680000000000000     
       atom           82  Se charge =  -0.97680000000000000     
       atom           83  Se charge =  -0.97680000000000000     
       atom           84  Se charge =  -0.97680000000000000     
       atom           85  Se charge =  -0.97680000000000000     
       atom           86  Se charge =  -0.97680000000000000     
       atom           87  Se charge =  -0.97680000000000000     
       atom           88  Se charge =  -0.97680000000000000     
       atom           89  Se charge =  -0.97680000000000000     
       atom           90  Se charge =  -0.97680000000000000     
       atom           91  Se charge =  -0.97680000000000000     
       atom           92  Se charge =  -0.97680000000000000     
       atom           93  Se charge =  -0.97680000000000000     
       atom           94  Se charge =  -0.97680000000000000     
       atom           95  Se charge =  -0.97680000000000000     
       atom           96  Se charge =  -0.97680000000000000     
       atom           97  Se charge =  -0.97680000000000000     
       atom           98  Se charge =  -0.97680000000000000     
       atom           99  Se charge =  -0.97680000000000000     
       atom          100  Se charge =  -0.97680000000000000     
       atom          101  Se charge =  -0.97680000000000000     
       atom          102  Se charge =  -0.97680000000000000     
       atom          103  Se charge =  -0.97680000000000000     
       atom          104  Se charge =  -0.97680000000000000     
       atom          105  Se charge =  -0.97680000000000000     
       atom          106  Se charge =  -0.97680000000000000     
       atom          107  Se charge =  -0.97680000000000000     
       atom          108  Se charge =  -0.97680000000000000     
       atom          109  Se charge =  -0.97680000000000000     
       atom          110  Se charge =  -0.97680000000000000     
       atom          111  Se charge =  -0.97680000000000000     
       atom          112  Se charge =  -0.97680000000000000     
       atom          113  Se charge =  -0.97680000000000000     
       atom          114  Se charge =  -0.97680000000000000     
       atom          115  Se charge =  -0.97680000000000000     
       atom          116  Se charge =  -0.97680000000000000     
       atom          117  Se charge =  -0.97680000000000000     
       atom          118  Se charge =  -0.97680000000000000     
       atom          119  Se charge =  -0.97680000000000000     
       atom          120  Se charge =  -0.97680000000000000     
       atom          121  Se charge =  -0.97680000000000000     
       atom          122  Se charge =  -0.97680000000000000     
       atom          123  Se charge =  -0.97680000000000000     
       atom          124  C331 charge =  -0.34499999999999997     
       atom          125  C2O3 charge =   0.45240000000000002     
       atom          126  O2D2 charge =  -0.47039999999999998     
       atom          127  O2D2 charge =  -0.47039999999999998     
       atom          128  HGA3 charge =   0.11500000000000000     
       atom          129  HGA3 charge =   0.11500000000000000     
       atom          130  HGA3 charge =   0.11500000000000000     
       atom          131  C331 charge =  -0.34499999999999997     
       atom          132  C2O3 charge =   0.45240000000000002     
       atom          133  O2D2 charge =  -0.47039999999999998     
       atom          134  O2D2 charge =  -0.47039999999999998     
       atom          135  HGA3 charge =   0.11500000000000000     
       atom          136  HGA3 charge =   0.11500000000000000     
       atom          137  HGA3 charge =   0.11500000000000000     
       atom          138  C331 charge =  -0.34499999999999997     
       atom          139  C2O3 charge =   0.45240000000000002     
       atom          140  O2D2 charge =  -0.47039999999999998     
       atom          141  O2D2 charge =  -0.47039999999999998     
       atom          142  HGA3 charge =   0.11500000000000000     
       atom          143  HGA3 charge =   0.11500000000000000     
       atom          144  HGA3 charge =   0.11500000000000000     
       atom          145  C331 charge =  -0.34499999999999997     
       atom          146  C2O3 charge =   0.45240000000000002     
       atom          147  O2D2 charge =  -0.47039999999999998     
       atom          148  O2D2 charge =  -0.47039999999999998     
       atom          149  HGA3 charge =   0.11500000000000000     
       atom          150  HGA3 charge =   0.11500000000000000     
       atom          151  HGA3 charge =   0.11500000000000000     
       atom          152  C331 charge =  -0.34499999999999997     
       atom          153  C2O3 charge =   0.45240000000000002     
       atom          154  O2D2 charge =  -0.47039999999999998     
       atom          155  O2D2 charge =  -0.47039999999999998     
       atom          156  HGA3 charge =   0.11500000000000000     
       atom          157  HGA3 charge =   0.11500000000000000     
       atom          158  HGA3 charge =   0.11500000000000000     
       atom          159  C331 charge =  -0.34499999999999997     
       atom          160  C2O3 charge =   0.45240000000000002     
       atom          161  O2D2 charge =  -0.47039999999999998     
       atom          162  O2D2 charge =  -0.47039999999999998     
       atom          163  HGA3 charge =   0.11500000000000000     
       atom          164  HGA3 charge =   0.11500000000000000     
       atom          165  HGA3 charge =   0.11500000000000000     
       atom          166  C331 charge =  -0.34499999999999997     
       atom          167  C2O3 charge =   0.45240000000000002     
       atom          168  O2D2 charge =  -0.47039999999999998     
       atom          169  O2D2 charge =  -0.47039999999999998     
       atom          170  HGA3 charge =   0.11500000000000000     
       atom          171  HGA3 charge =   0.11500000000000000     
       atom          172  HGA3 charge =   0.11500000000000000     
       atom          173  C331 charge =  -0.34499999999999997     
       atom          174  C2O3 charge =   0.45240000000000002     
       atom          175  O2D2 charge =  -0.47039999999999998     
       atom          176  O2D2 charge =  -0.47039999999999998     
       atom          177  HGA3 charge =   0.11500000000000000     
       atom          178  HGA3 charge =   0.11500000000000000     
       atom          179  HGA3 charge =   0.11500000000000000     
       atom          180  C331 charge =  -0.34499999999999997     
       atom          181  C2O3 charge =   0.45240000000000002     
       atom          182  O2D2 charge =  -0.47039999999999998     
       atom          183  O2D2 charge =  -0.47039999999999998     
       atom          184  HGA3 charge =   0.11500000000000000     
       atom          185  HGA3 charge =   0.11500000000000000     
       atom          186  HGA3 charge =   0.11500000000000000     
       atom          187  C331 charge =  -0.34499999999999997     
       atom          188  C2O3 charge =   0.45240000000000002     
       atom          189  O2D2 charge =  -0.47039999999999998     
       atom          190  O2D2 charge =  -0.47039999999999998     
       atom          191  HGA3 charge =   0.11500000000000000     
       atom          192  HGA3 charge =   0.11500000000000000     
       atom          193  HGA3 charge =   0.11500000000000000     
       atom          194  C331 charge =  -0.34499999999999997     
       atom          195  C2O3 charge =   0.45240000000000002     
       atom          196  O2D2 charge =  -0.47039999999999998     
       atom          197  O2D2 charge =  -0.47039999999999998     
       atom          198  HGA3 charge =   0.11500000000000000     
       atom          199  HGA3 charge =   0.11500000000000000     
       atom          200  HGA3 charge =   0.11500000000000000     
       atom          201  C331 charge =  -0.34499999999999997     
       atom          202  C2O3 charge =   0.45240000000000002     
       atom          203  O2D2 charge =  -0.47039999999999998     
       atom          204  O2D2 charge =  -0.47039999999999998     
       atom          205  HGA3 charge =   0.11500000000000000     
       atom          206  HGA3 charge =   0.11500000000000000     
       atom          207  HGA3 charge =   0.11500000000000000     
       atom          208  C331 charge =  -0.34499999999999997     
       atom          209  C2O3 charge =   0.45240000000000002     
       atom          210  O2D2 charge =  -0.47039999999999998     
       atom          211  O2D2 charge =  -0.47039999999999998     
       atom          212  HGA3 charge =   0.11500000000000000     
       atom          213  HGA3 charge =   0.11500000000000000     
       atom          214  HGA3 charge =   0.11500000000000000     
       atom          215  C331 charge =  -0.34499999999999997     
       atom          216  C2O3 charge =   0.45240000000000002     
       atom          217  O2D2 charge =  -0.47039999999999998     
       atom          218  O2D2 charge =  -0.47039999999999998     
       atom          219  HGA3 charge =   0.11500000000000000     
       atom          220  HGA3 charge =   0.11500000000000000     
       atom          221  HGA3 charge =   0.11500000000000000     
       atom          222  C331 charge =  -0.34499999999999997     
       atom          223  C2O3 charge =   0.45240000000000002     
       atom          224  O2D2 charge =  -0.47039999999999998     
       atom          225  O2D2 charge =  -0.47039999999999998     
       atom          226  HGA3 charge =   0.11500000000000000     
       atom          227  HGA3 charge =   0.11500000000000000     
       atom          228  HGA3 charge =   0.11500000000000000     
       atom          229  C331 charge =  -0.34499999999999997     
       atom          230  C2O3 charge =   0.45240000000000002     
       atom          231  O2D2 charge =  -0.47039999999999998     
       atom          232  O2D2 charge =  -0.47039999999999998     
       atom          233  HGA3 charge =   0.11500000000000000     
       atom          234  HGA3 charge =   0.11500000000000000     
       atom          235  HGA3 charge =   0.11500000000000000     
       atom          236  C331 charge =  -0.34499999999999997     
       atom          237  C2O3 charge =   0.45240000000000002     
       atom          238  O2D2 charge =  -0.47039999999999998     
       atom          239  O2D2 charge =  -0.47039999999999998     
       atom          240  HGA3 charge =   0.11500000000000000     
       atom          241  HGA3 charge =   0.11500000000000000     
       atom          242  HGA3 charge =   0.11500000000000000     
       atom          243  C331 charge =  -0.34499999999999997     
       atom          244  C2O3 charge =   0.45240000000000002     
       atom          245  O2D2 charge =  -0.47039999999999998     
       atom          246  O2D2 charge =  -0.47039999999999998     
       atom          247  HGA3 charge =   0.11500000000000000     
       atom          248  HGA3 charge =   0.11500000000000000     
       atom          249  HGA3 charge =   0.11500000000000000     
       atom          250  C331 charge =  -0.34499999999999997     
       atom          251  C2O3 charge =   0.45240000000000002     
       atom          252  O2D2 charge =  -0.47039999999999998     
       atom          253  O2D2 charge =  -0.47039999999999998     
       atom          254  HGA3 charge =   0.11500000000000000     
       atom          255  HGA3 charge =   0.11500000000000000     
       atom          256  HGA3 charge =   0.11500000000000000     
       atom          257  C331 charge =  -0.34499999999999997     
       atom          258  C2O3 charge =   0.45240000000000002     
       atom          259  O2D2 charge =  -0.47039999999999998     
       atom          260  O2D2 charge =  -0.47039999999999998     
       atom          261  HGA3 charge =   0.11500000000000000     
       atom          262  HGA3 charge =   0.11500000000000000     
       atom          263  HGA3 charge =   0.11500000000000000     
       atom          264  C331 charge =  -0.34499999999999997     
       atom          265  C2O3 charge =   0.45240000000000002     
       atom          266  O2D2 charge =  -0.47039999999999998     
       atom          267  O2D2 charge =  -0.47039999999999998     
       atom          268  HGA3 charge =   0.11500000000000000     
       atom          269  HGA3 charge =   0.11500000000000000     
       atom          270  HGA3 charge =   0.11500000000000000     
       atom          271  C331 charge =  -0.34499999999999997     
       atom          272  C2O3 charge =   0.45240000000000002     
       atom          273  O2D2 charge =  -0.47039999999999998     
       atom          274  O2D2 charge =  -0.47039999999999998     
       atom          275  HGA3 charge =   0.11500000000000000     
       atom          276  HGA3 charge =   0.11500000000000000     
       atom          277  HGA3 charge =   0.11500000000000000     
       atom          278  C331 charge =  -0.34499999999999997     
       atom          279  C2O3 charge =   0.45240000000000002     
       atom          280  O2D2 charge =  -0.47039999999999998     
       atom          281  O2D2 charge =  -0.47039999999999998     
       atom          282  HGA3 charge =   0.11500000000000000     
       atom          283  HGA3 charge =   0.11500000000000000     
       atom          284  HGA3 charge =   0.11500000000000000     
       atom          285  C331 charge =  -0.34499999999999997     
       atom          286  C2O3 charge =   0.45240000000000002     
       atom          287  O2D2 charge =  -0.47039999999999998     
       atom          288  O2D2 charge =  -0.47039999999999998     
       atom          289  HGA3 charge =   0.11500000000000000     
       atom          290  HGA3 charge =   0.11500000000000000     
       atom          291  HGA3 charge =   0.11500000000000000     
       atom          292  C331 charge =  -0.34499999999999997     
       atom          293  C2O3 charge =   0.45240000000000002     
       atom          294  O2D2 charge =  -0.47039999999999998     
       atom          295  O2D2 charge =  -0.47039999999999998     
       atom          296  HGA3 charge =   0.11500000000000000     
       atom          297  HGA3 charge =   0.11500000000000000     
       atom          298  HGA3 charge =   0.11500000000000000     
       atom          299  C331 charge =  -0.34499999999999997     
       atom          300  C2O3 charge =   0.45240000000000002     
       atom          301  O2D2 charge =  -0.47039999999999998     
       atom          302  O2D2 charge =  -0.47039999999999998     
       atom          303  HGA3 charge =   0.11500000000000000     
       atom          304  HGA3 charge =   0.11500000000000000     
       atom          305  HGA3 charge =   0.11500000000000000     
    Total system charge =         0.0000000000
    Total system mass   =  24650138.9535497911
     Mol(           5 ) Old BOND Count:            6           3
     1     5
     1     6
     1     7
     2     1
     3     2
     4     2
     Mol(           5 ) Old BEND Count:            9           4
     2     1     5
     2     1     6
     2     1     7
     3     2     1
     4     2     1
     4     2     3
     6     1     5
     7     1     5
     7     1     6
     Mol(           5 ) Old UB Count:            9           4
     2     1     5
     2     1     6
     2     1     7
     3     2     1
     4     2     1
     4     2     3
     6     1     5
     7     1     5
     7     1     6
     Mol(           5 ) New UB Count:            0           0

     Mol(           5 ) Old TORSION Count:            6           1
     5     1     2     3
     5     1     2     4
     6     1     2     3
     6     1     2     4
     7     1     2     3
     7     1     2     4
     Mol(           5 ) Old IMPROPER Count:            1           1
     Mol(           5 ) Old OPBEND Count:            1           1
     Mol(           5 ) New OPBEND Count:            0           0

 *******************************************************************************
 ***                     STARTING GEOMETRY OPTIMIZATION                      ***
 ***                                 L-BFGS                                  ***
 *******************************************************************************

 --------------------------
 OPTIMIZATION STEP:      1
 --------------------------

 ENERGY| Total FORCE_EVAL ( FIST ) energy (a.u.):            -15.443080591840632


 ENERGY| Total FORCE_EVAL ( FIST ) energy (a.u.):            -15.511438261826862


 --------  Informations at step =     1 ------------
  Optimization Method        =                LBFGS
  Total Energy               =       -15.5114382618
  Real energy change         =        -0.0683576700
  Decrease in energy         =                  YES
  Used time                  =                0.053

  Convergence check :
  Max. step size             =         0.1332802615
  Conv. limit for step size  =         0.0030000000
  Convergence in step size   =                   NO
  RMS step size              =         0.0330589802
  Conv. limit for RMS step   =         0.0015000000
  Convergence in RMS step    =                   NO
  Max. gradient              =         0.0920624032
  Conv. limit for gradients  =         0.0004500000
  Conv. for gradients        =                   NO
  RMS gradient               =         0.0205976206
  Conv. limit for RMS grad.  =         0.0003000000
  Conv. for gradients        =                   NO
 ---------------------------------------------------

 --------------------------
 OPTIMIZATION STEP:      2
 --------------------------

 ENERGY| Total FORCE_EVAL ( FIST ) energy (a.u.):            -15.655878454432182


 --------  Informations at step =     2 ------------
  Optimization Method        =                LBFGS
  Total Energy               =       -15.6558784544
  Real energy change         =        -0.1444401926
  Decrease in energy         =                  YES
  Used time                  =                0.019

  Convergence check :
  Max. step size             =         0.0431271412
  Conv. limit for step size  =         0.0030000000
  Convergence in step size   =                   NO
  RMS step size              =         0.0103802980
  Conv. limit for RMS step   =         0.0015000000
  Convergence in RMS step    =                   NO
  Max. gradient              =         0.0389739589
  Conv. limit for gradients  =         0.0004500000
  Conv. for gradients        =                   NO
  RMS gradient               =         0.0104392578
  Conv. limit for RMS grad.  =         0.0003000000
  Conv. for gradients        =                   NO
 ---------------------------------------------------

 --------------------------
 OPTIMIZATION STEP:      3
 --------------------------

 ENERGY| Total FORCE_EVAL ( FIST ) energy (a.u.):            -15.829909423207738


 --------  Informations at step =     3 ------------
  Optimization Method        =                LBFGS
  Total Energy               =       -15.8299094232
  Real energy change         =        -0.1740309688
  Decrease in energy         =                  YES
  Used time                  =                0.023

  Convergence check :
  Max. step size             =         0.1066656555
  Conv. limit for step size  =         0.0030000000
  Convergence in step size   =                   NO
  RMS step size              =         0.0303051066
  Conv. limit for RMS step   =         0.0015000000
  Convergence in RMS step    =                   NO
  Max. gradient              =         0.0277690425
  Conv. limit for gradients  =         0.0004500000
  Conv. for gradients        =                   NO
  RMS gradient               =         0.0068694550
  Conv. limit for RMS grad.  =         0.0003000000
  Conv. for gradients        =                   NO
 ---------------------------------------------------

 --------------------------
 OPTIMIZATION STEP:      4
 --------------------------

 ENERGY| Total FORCE_EVAL ( FIST ) energy (a.u.):            -16.003987608981269


 --------  Informations at step =     4 ------------
  Optimization Method        =                LBFGS
  Total Energy               =       -16.0039876090
  Real energy change         =        -0.1740781858
  Decrease in energy         =                  YES
  Used time                  =                0.019

  Convergence check :
  Max. step size             =         0.2104575647
  Conv. limit for step size  =         0.0030000000
  Convergence in step size   =                   NO
  RMS step size              =         0.0541459835
  Conv. limit for RMS step   =         0.0015000000
  Convergence in RMS step    =                   NO
  Max. gradient              =         0.0387834042
  Conv. limit for gradients  =         0.0004500000
  Conv. for gradients        =                   NO
  RMS gradient               =         0.0101814751
  Conv. limit for RMS grad.  =         0.0003000000
  Conv. for gradients        =                   NO
 ---------------------------------------------------

 --------------------------
 OPTIMIZATION STEP:      5
 --------------------------

 ENERGY| Total FORCE_EVAL ( FIST ) energy (a.u.):            -16.148230209709251


 --------  Informations at step =     5 ------------
  Optimization Method        =                LBFGS
  Total Energy               =       -16.1482302097
  Real energy change         =        -0.1442426007
  Decrease in energy         =                  YES
  Used time                  =                0.021

  Convergence check :
  Max. step size             =         0.2855812614
  Conv. limit for step size  =         0.0030000000
  Convergence in step size   =                   NO
  RMS step size              =         0.0634560640
  Conv. limit for RMS step   =         0.0015000000
  Convergence in RMS step    =                   NO
  Max. gradient              =         0.0477788064
  Conv. limit for gradients  =         0.0004500000
  Conv. for gradients        =                   NO
  RMS gradient               =         0.0085255811
  Conv. limit for RMS grad.  =         0.0003000000
  Conv. for gradients        =                   NO
 ---------------------------------------------------

 --------------------------
 OPTIMIZATION STEP:      6
 --------------------------

 ENERGY| Total FORCE_EVAL ( FIST ) energy (a.u.):            -16.192487037767634


 --------  Informations at step =     6 ------------
  Optimization Method        =                LBFGS
  Total Energy               =       -16.1924870378
  Real energy change         =        -0.0442568281
  Decrease in energy         =                  YES
  Used time                  =                0.031

  Convergence check :
  Max. step size             =         0.2918584727
  Conv. limit for step size  =         0.0030000000
  Convergence in step size   =                   NO
  RMS step size              =         0.0626106364
  Conv. limit for RMS step   =         0.0015000000
  Convergence in RMS step    =                   NO
  Max. gradient              =         0.1245054179
  Conv. limit for gradients  =         0.0004500000
  Conv. for gradients        =                   NO
  RMS gradient               =         0.0138307279
  Conv. limit for RMS grad.  =         0.0003000000
  Conv. for gradients        =                   NO
 ---------------------------------------------------

 --------------------------
 OPTIMIZATION STEP:      7
 --------------------------

 ENERGY| Total FORCE_EVAL ( FIST ) energy (a.u.):            -16.288630943738365


 --------  Informations at step =     7 ------------
  Optimization Method        =                LBFGS
  Total Energy               =       -16.2886309437
  Real energy change         =        -0.0961439060
  Decrease in energy         =                  YES
  Used time                  =                0.019

  Convergence check :
  Max. step size             =         0.0822172812
  Conv. limit for step size  =         0.0030000000
  Convergence in step size   =                   NO
  RMS step size              =         0.0153195087
  Conv. limit for RMS step   =         0.0015000000
  Convergence in RMS step    =                   NO
  Max. gradient              =         0.0161554694
  Conv. limit for gradients  =         0.0004500000
  Conv. for gradients        =                   NO
  RMS gradient               =         0.0045881967
  Conv. limit for RMS grad.  =         0.0003000000
  Conv. for gradients        =                   NO
 ---------------------------------------------------

 --------------------------
 OPTIMIZATION STEP:      8
 --------------------------

 ENERGY| Total FORCE_EVAL ( FIST ) energy (a.u.):            -16.313834301927123


 --------  Informations at step =     8 ------------
  Optimization Method        =                LBFGS
  Total Energy               =       -16.3138343019
  Real energy change         =        -0.0252033582
  Decrease in energy         =                  YES
  Used time                  =                0.058

  Convergence check :
  Max. step size             =         0.0462112553
  Conv. limit for step size  =         0.0030000000
  Convergence in step size   =                   NO
  RMS step size              =         0.0113719129
  Conv. limit for RMS step   =         0.0015000000
  Convergence in RMS step    =                   NO
  Max. gradient              =         0.0183078764
  Conv. limit for gradients  =         0.0004500000
  Conv. for gradients        =                   NO
  RMS gradient               =         0.0039408161
  Conv. limit for RMS grad.  =         0.0003000000
  Conv. for gradients        =                   NO
 ---------------------------------------------------

 --------------------------
 OPTIMIZATION STEP:      9
 --------------------------

 ENERGY| Total FORCE_EVAL ( FIST ) energy (a.u.):            -16.351495297446082


 --------  Informations at step =     9 ------------
  Optimization Method        =                LBFGS
  Total Energy               =       -16.3514952974
  Real energy change         =        -0.0376609955
  Decrease in energy         =                  YES
  Used time                  =                0.032

  Convergence check :
  Max. step size             =         0.1545048709
  Conv. limit for step size  =         0.0030000000
  Convergence in step size   =                   NO
  RMS step size              =         0.0327869769
  Conv. limit for RMS step   =         0.0015000000
  Convergence in RMS step    =                   NO
  Max. gradient              =         0.0320941142
  Conv. limit for gradients  =         0.0004500000
  Conv. for gradients        =                   NO
  RMS gradient               =         0.0041965868
  Conv. limit for RMS grad.  =         0.0003000000
  Conv. for gradients        =                   NO
 ---------------------------------------------------

 --------------------------
 OPTIMIZATION STEP:     10
 --------------------------

 ENERGY| Total FORCE_EVAL ( FIST ) energy (a.u.):            -16.368810541097439


 --------  Informations at step =    10 ------------
  Optimization Method        =                LBFGS
  Total Energy               =       -16.3688105411
  Real energy change         =        -0.0173152437
  Decrease in energy         =                  YES
  Used time                  =                0.035

  Convergence check :
  Max. step size             =         0.1093239590
  Conv. limit for step size  =         0.0030000000
  Convergence in step size   =                   NO
  RMS step size              =         0.0231649508
  Conv. limit for RMS step   =         0.0015000000
  Convergence in RMS step    =                   NO
  Max. gradient              =         0.0229426488
  Conv. limit for gradients  =         0.0004500000
  Conv. for gradients        =                   NO
  RMS gradient               =         0.0046257214
  Conv. limit for RMS grad.  =         0.0003000000
  Conv. for gradients        =                   NO
 ---------------------------------------------------

 --------------------------
 OPTIMIZATION STEP:     11
 --------------------------

 ENERGY| Total FORCE_EVAL ( FIST ) energy (a.u.):            -16.385149950276155


 --------  Informations at step =    11 ------------
  Optimization Method        =                LBFGS
  Total Energy               =       -16.3851499503
  Real energy change         =        -0.0163394092
  Decrease in energy         =                  YES
  Used time                  =                0.022

  Convergence check :
  Max. step size             =         0.0273398157
  Conv. limit for step size  =         0.0030000000
  Convergence in step size   =                   NO
  RMS step size              =         0.0078593585
  Conv. limit for RMS step   =         0.0015000000
  Convergence in RMS step    =                   NO
  Max. gradient              =         0.0135776272
  Conv. limit for gradients  =         0.0004500000
  Conv. for gradients        =                   NO
  RMS gradient               =         0.0024726083
  Conv. limit for RMS grad.  =         0.0003000000
  Conv. for gradients        =                   NO
 ---------------------------------------------------

 --------------------------
 OPTIMIZATION STEP:     12
 --------------------------

 ENERGY| Total FORCE_EVAL ( FIST ) energy (a.u.):            -16.398530215666593


 --------  Informations at step =    12 ------------
  Optimization Method        =                LBFGS
  Total Energy               =       -16.3985302157
  Real energy change         =        -0.0133802654
  Decrease in energy         =                  YES
  Used time                  =                0.083

  Convergence check :
  Max. step size             =         0.0491566360
  Conv. limit for step size  =         0.0030000000
  Convergence in step size   =                   NO
  RMS step size              =         0.0138219148
  Conv. limit for RMS step   =         0.0015000000
  Convergence in RMS step    =                   NO
  Max. gradient              =         0.0144943731
  Conv. limit for gradients  =         0.0004500000
  Conv. for gradients        =                   NO
  RMS gradient               =         0.0023373512
  Conv. limit for RMS grad.  =         0.0003000000
  Conv. for gradients        =                   NO
 ---------------------------------------------------

 --------------------------
 OPTIMIZATION STEP:     13
 --------------------------

 ENERGY| Total FORCE_EVAL ( FIST ) energy (a.u.):            -16.409280503647715


 --------  Informations at step =    13 ------------
  Optimization Method        =                LBFGS
  Total Energy               =       -16.4092805036
  Real energy change         =        -0.0107502880
  Decrease in energy         =                  YES
  Used time                  =                0.039

  Convergence check :
  Max. step size             =         0.0598149645
  Conv. limit for step size  =         0.0030000000
  Convergence in step size   =                   NO
  RMS step size              =         0.0134956741
  Conv. limit for RMS step   =         0.0015000000
  Convergence in RMS step    =                   NO
  Max. gradient              =         0.0185892629
  Conv. limit for gradients  =         0.0004500000
  Conv. for gradients        =                   NO
  RMS gradient               =         0.0025094485
  Conv. limit for RMS grad.  =         0.0003000000
  Conv. for gradients        =                   NO
 ---------------------------------------------------

 --------------------------
 OPTIMIZATION STEP:     14
 --------------------------

 ENERGY| Total FORCE_EVAL ( FIST ) energy (a.u.):            -16.425501610373242


 --------  Informations at step =    14 ------------
  Optimization Method        =                LBFGS
  Total Energy               =       -16.4255016104
  Real energy change         =        -0.0162211067
  Decrease in energy         =                  YES
  Used time                  =                0.028

  Convergence check :
  Max. step size             =         0.1394733341
  Conv. limit for step size  =         0.0030000000
  Convergence in step size   =                   NO
  RMS step size              =         0.0349913136
  Conv. limit for RMS step   =         0.0015000000
  Convergence in RMS step    =                   NO
  Max. gradient              =         0.0119936667
  Conv. limit for gradients  =         0.0004500000
  Conv. for gradients        =                   NO
  RMS gradient               =         0.0028611167
  Conv. limit for RMS grad.  =         0.0003000000
  Conv. for gradients        =                   NO
 ---------------------------------------------------

 --------------------------
 OPTIMIZATION STEP:     15
 --------------------------

 ENERGY| Total FORCE_EVAL ( FIST ) energy (a.u.):            -16.436425771002959


 --------  Informations at step =    15 ------------
  Optimization Method        =                LBFGS
  Total Energy               =       -16.4364257710
  Real energy change         =        -0.0109241606
  Decrease in energy         =                  YES
  Used time                  =                0.021

  Convergence check :
  Max. step size             =         0.0957612432
  Conv. limit for step size  =         0.0030000000
  Convergence in step size   =                   NO
  RMS step size              =         0.0190677025
  Conv. limit for RMS step   =         0.0015000000
  Convergence in RMS step    =                   NO
  Max. gradient              =         0.0281844480
  Conv. limit for gradients  =         0.0004500000
  Conv. for gradients        =                   NO
  RMS gradient               =         0.0041536219
  Conv. limit for RMS grad.  =         0.0003000000
  Conv. for gradients        =                   NO
 ---------------------------------------------------

 --------------------------
 OPTIMIZATION STEP:     16
 --------------------------

 ENERGY| Total FORCE_EVAL ( FIST ) energy (a.u.):            -16.448718165170135


 --------  Informations at step =    16 ------------
  Optimization Method        =                LBFGS
  Total Energy               =       -16.4487181652
  Real energy change         =        -0.0122923942
  Decrease in energy         =                  YES
  Used time                  =                0.019

  Convergence check :
  Max. step size             =         0.0320805699
  Conv. limit for step size  =         0.0030000000
  Convergence in step size   =                   NO
  RMS step size              =         0.0081709373
  Conv. limit for RMS step   =         0.0015000000
  Convergence in RMS step    =                   NO
  Max. gradient              =         0.0178340718
  Conv. limit for gradients  =         0.0004500000
  Conv. for gradients        =                   NO
  RMS gradient               =         0.0026141777
  Conv. limit for RMS grad.  =         0.0003000000
  Conv. for gradients        =                   NO
 ---------------------------------------------------

 --------------------------
 OPTIMIZATION STEP:     17
 --------------------------

 ENERGY| Total FORCE_EVAL ( FIST ) energy (a.u.):            -16.459689780567448


 --------  Informations at step =    17 ------------
  Optimization Method        =                LBFGS
  Total Energy               =       -16.4596897806
  Real energy change         =        -0.0109716154
  Decrease in energy         =                  YES
  Used time                  =                0.017

  Convergence check :
  Max. step size             =         0.0860103702
  Conv. limit for step size  =         0.0030000000
  Convergence in step size   =                   NO
  RMS step size              =         0.0173372034
  Conv. limit for RMS step   =         0.0015000000
  Convergence in RMS step    =                   NO
  Max. gradient              =         0.0107912348
  Conv. limit for gradients  =         0.0004500000
  Conv. for gradients        =                   NO
  RMS gradient               =         0.0020532253
  Conv. limit for RMS grad.  =         0.0003000000
  Conv. for gradients        =                   NO
 ---------------------------------------------------

 --------------------------
 OPTIMIZATION STEP:     18
 --------------------------

 ENERGY| Total FORCE_EVAL ( FIST ) energy (a.u.):            -16.465711619498130


 --------  Informations at step =    18 ------------
  Optimization Method        =                LBFGS
  Total Energy               =       -16.4657116195
  Real energy change         =        -0.0060218389
  Decrease in energy         =                  YES
  Used time                  =                0.018

  Convergence check :
  Max. step size             =         0.0820287094
  Conv. limit for step size  =         0.0030000000
  Convergence in step size   =                   NO
  RMS step size              =         0.0142870986
  Conv. limit for RMS step   =         0.0015000000
  Convergence in RMS step    =                   NO
  Max. gradient              =         0.0205200021
  Conv. limit for gradients  =         0.0004500000
  Conv. for gradients        =                   NO
  RMS gradient               =         0.0022800523
  Conv. limit for RMS grad.  =         0.0003000000
  Conv. for gradients        =                   NO
 ---------------------------------------------------

 --------------------------
 OPTIMIZATION STEP:     19
 --------------------------

 ENERGY| Total FORCE_EVAL ( FIST ) energy (a.u.):            -16.475046039885484


 --------  Informations at step =    19 ------------
  Optimization Method        =                LBFGS
  Total Energy               =       -16.4750460399
  Real energy change         =        -0.0093344204
  Decrease in energy         =                  YES
  Used time                  =                0.015

  Convergence check :
  Max. step size             =         0.0921982222
  Conv. limit for step size  =         0.0030000000
  Convergence in step size   =                   NO
  RMS step size              =         0.0147883422
  Conv. limit for RMS step   =         0.0015000000
  Convergence in RMS step    =                   NO
  Max. gradient              =         0.0133494071
  Conv. limit for gradients  =         0.0004500000
  Conv. for gradients        =                   NO
  RMS gradient               =         0.0021481423
  Conv. limit for RMS grad.  =         0.0003000000
  Conv. for gradients        =                   NO
 ---------------------------------------------------

 --------------------------
 OPTIMIZATION STEP:     20
 --------------------------

 ENERGY| Total FORCE_EVAL ( FIST ) energy (a.u.):            -16.488235222140634


 --------  Informations at step =    20 ------------
  Optimization Method        =                LBFGS
  Total Energy               =       -16.4882352221
  Real energy change         =        -0.0131891823
  Decrease in energy         =                  YES
  Used time                  =                0.017

  Convergence check :
  Max. step size             =         0.2409145045
  Conv. limit for step size  =         0.0030000000
  Convergence in step size   =                   NO
  RMS step size              =         0.0384056038
  Conv. limit for RMS step   =         0.0015000000
  Convergence in RMS step    =                   NO
  Max. gradient              =         0.0386384329
  Conv. limit for gradients  =         0.0004500000
  Conv. for gradients        =                   NO
  RMS gradient               =         0.0036325123
  Conv. limit for RMS grad.  =         0.0003000000
  Conv. for gradients        =                   NO
 ---------------------------------------------------

 --------------------------
 OPTIMIZATION STEP:     21
 --------------------------

 ENERGY| Total FORCE_EVAL ( FIST ) energy (a.u.):            -16.494664006251210


 --------  Informations at step =    21 ------------
  Optimization Method        =                LBFGS
  Total Energy               =       -16.4946640063
  Real energy change         =        -0.0064287841
  Decrease in energy         =                  YES
  Used time                  =                0.018

  Convergence check :
  Max. step size             =         0.1747927999
  Conv. limit for step size  =         0.0030000000
  Convergence in step size   =                   NO
  RMS step size              =         0.0260667198
  Conv. limit for RMS step   =         0.0015000000
  Convergence in RMS step    =                   NO
  Max. gradient              =         0.0319872228
  Conv. limit for gradients  =         0.0004500000
  Conv. for gradients        =                   NO
  RMS gradient               =         0.0041915537
  Conv. limit for RMS grad.  =         0.0003000000
  Conv. for gradients        =                   NO
 ---------------------------------------------------

 --------------------------
 OPTIMIZATION STEP:     22
 --------------------------

 ENERGY| Total FORCE_EVAL ( FIST ) energy (a.u.):            -16.502880160401457


 --------  Informations at step =    22 ------------
  Optimization Method        =                LBFGS
  Total Energy               =       -16.5028801604
  Real energy change         =        -0.0082161542
  Decrease in energy         =                  YES
  Used time                  =                0.017

  Convergence check :
  Max. step size             =         0.0318505355
  Conv. limit for step size  =         0.0030000000
  Convergence in step size   =                   NO
  RMS step size              =         0.0064425326
  Conv. limit for RMS step   =         0.0015000000
  Convergence in RMS step    =                   NO
  Max. gradient              =         0.0134364868
  Conv. limit for gradients  =         0.0004500000
  Conv. for gradients        =                   NO
  RMS gradient               =         0.0021441455
  Conv. limit for RMS grad.  =         0.0003000000
  Conv. for gradients        =                   NO
 ---------------------------------------------------

 --------------------------
 OPTIMIZATION STEP:     23
 --------------------------

 ENERGY| Total FORCE_EVAL ( FIST ) energy (a.u.):            -16.510870351726410


 --------  Informations at step =    23 ------------
  Optimization Method        =                LBFGS
  Total Energy               =       -16.5108703517
  Real energy change         =        -0.0079901913
  Decrease in energy         =                  YES
  Used time                  =                0.017

  Convergence check :
  Max. step size             =         0.0576091141
  Conv. limit for step size  =         0.0030000000
  Convergence in step size   =                   NO
  RMS step size              =         0.0100473416
  Conv. limit for RMS step   =         0.0015000000
  Convergence in RMS step    =                   NO
  Max. gradient              =         0.0063970772
  Conv. limit for gradients  =         0.0004500000
  Conv. for gradients        =                   NO
  RMS gradient               =         0.0016679441
  Conv. limit for RMS grad.  =         0.0003000000
  Conv. for gradients        =                   NO
 ---------------------------------------------------

 --------------------------
 OPTIMIZATION STEP:     24
 --------------------------

 ENERGY| Total FORCE_EVAL ( FIST ) energy (a.u.):            -16.519888066722743


 --------  Informations at step =    24 ------------
  Optimization Method        =                LBFGS
  Total Energy               =       -16.5198880667
  Real energy change         =        -0.0090177150
  Decrease in energy         =                  YES
  Used time                  =                0.017

  Convergence check :
  Max. step size             =         0.1559019234
  Conv. limit for step size  =         0.0030000000
  Convergence in step size   =                   NO
  RMS step size              =         0.0233534209
  Conv. limit for RMS step   =         0.0015000000
  Convergence in RMS step    =                   NO
  Max. gradient              =         0.0154950644
  Conv. limit for gradients  =         0.0004500000
  Conv. for gradients        =                   NO
  RMS gradient               =         0.0022048977
  Conv. limit for RMS grad.  =         0.0003000000
  Conv. for gradients        =                   NO
 ---------------------------------------------------

 --------------------------
 OPTIMIZATION STEP:     25
 --------------------------

 ENERGY| Total FORCE_EVAL ( FIST ) energy (a.u.):            -16.530401423342461


 --------  Informations at step =    25 ------------
  Optimization Method        =                LBFGS
  Total Energy               =       -16.5304014233
  Real energy change         =        -0.0105133566
  Decrease in energy         =                  YES
  Used time                  =                0.020

  Convergence check :
  Max. step size             =         0.3500871378
  Conv. limit for step size  =         0.0030000000
  Convergence in step size   =                   NO
  RMS step size              =         0.0498548621
  Conv. limit for RMS step   =         0.0015000000
  Convergence in RMS step    =                   NO
  Max. gradient              =         0.0316017967
  Conv. limit for gradients  =         0.0004500000
  Conv. for gradients        =                   NO
  RMS gradient               =         0.0031956026
  Conv. limit for RMS grad.  =         0.0003000000
  Conv. for gradients        =                   NO
 ---------------------------------------------------

 --------------------------
 OPTIMIZATION STEP:     26
 --------------------------

 ENERGY| Total FORCE_EVAL ( FIST ) energy (a.u.):            -16.534175051721181


 --------  Informations at step =    26 ------------
  Optimization Method        =                LBFGS
  Total Energy               =       -16.5341750517
  Real energy change         =        -0.0037736284
  Decrease in energy         =                  YES
  Used time                  =                0.014

  Convergence check :
  Max. step size             =         0.2266526949
  Conv. limit for step size  =         0.0030000000
  Convergence in step size   =                   NO
  RMS step size              =         0.0316707603
  Conv. limit for RMS step   =         0.0015000000
  Convergence in RMS step    =                   NO
  Max. gradient              =         0.0420234499
  Conv. limit for gradients  =         0.0004500000
  Conv. for gradients        =                   NO
  RMS gradient               =         0.0040574599
  Conv. limit for RMS grad.  =         0.0003000000
  Conv. for gradients        =                   NO
 ---------------------------------------------------

 --------------------------
 OPTIMIZATION STEP:     27
 --------------------------

 ENERGY| Total FORCE_EVAL ( FIST ) energy (a.u.):            -16.542200991682357


 --------  Informations at step =    27 ------------
  Optimization Method        =                LBFGS
  Total Energy               =       -16.5422009917
  Real energy change         =        -0.0080259400
  Decrease in energy         =                  YES
  Used time                  =                0.017

  Convergence check :
  Max. step size             =         0.1196151087
  Conv. limit for step size  =         0.0030000000
  Convergence in step size   =                   NO
  RMS step size              =         0.0178105959
  Conv. limit for RMS step   =         0.0015000000
  Convergence in RMS step    =                   NO
  Max. gradient              =         0.0176747183
  Conv. limit for gradients  =         0.0004500000
  Conv. for gradients        =                   NO
  RMS gradient               =         0.0016960027
  Conv. limit for RMS grad.  =         0.0003000000
  Conv. for gradients        =                   NO
 ---------------------------------------------------

 --------------------------
 OPTIMIZATION STEP:     28
 --------------------------

 ENERGY| Total FORCE_EVAL ( FIST ) energy (a.u.):            -16.546025407173733


 --------  Informations at step =    28 ------------
  Optimization Method        =                LBFGS
  Total Energy               =       -16.5460254072
  Real energy change         =        -0.0038244155
  Decrease in energy         =                  YES
  Used time                  =                0.015

  Convergence check :
  Max. step size             =         0.0455716633
  Conv. limit for step size  =         0.0030000000
  Convergence in step size   =                   NO
  RMS step size              =         0.0067801689
  Conv. limit for RMS step   =         0.0015000000
  Convergence in RMS step    =                   NO
  Max. gradient              =         0.0061554639
  Conv. limit for gradients  =         0.0004500000
  Conv. for gradients        =                   NO
  RMS gradient               =         0.0013839524
  Conv. limit for RMS grad.  =         0.0003000000
  Conv. for gradients        =                   NO
 ---------------------------------------------------

 --------------------------
 OPTIMIZATION STEP:     29
 --------------------------

 ENERGY| Total FORCE_EVAL ( FIST ) energy (a.u.):            -16.550571697542726


 --------  Informations at step =    29 ------------
  Optimization Method        =                LBFGS
  Total Energy               =       -16.5505716975
  Real energy change         =        -0.0045462904
  Decrease in energy         =                  YES
  Used time                  =                0.016

  Convergence check :
  Max. step size             =         0.0477735257
  Conv. limit for step size  =         0.0030000000
  Convergence in step size   =                   NO
  RMS step size              =         0.0088422335
  Conv. limit for RMS step   =         0.0015000000
  Convergence in RMS step    =                   NO
  Max. gradient              =         0.0147436561
  Conv. limit for gradients  =         0.0004500000
  Conv. for gradients        =                   NO
  RMS gradient               =         0.0016967046
  Conv. limit for RMS grad.  =         0.0003000000
  Conv. for gradients        =                   NO
 ---------------------------------------------------

 --------------------------
 OPTIMIZATION STEP:     30
 --------------------------

 ENERGY| Total FORCE_EVAL ( FIST ) energy (a.u.):            -16.556948229700474


 --------  Informations at step =    30 ------------
  Optimization Method        =                LBFGS
  Total Energy               =       -16.5569482297
  Real energy change         =        -0.0063765322
  Decrease in energy         =                  YES
  Used time                  =                0.015

  Convergence check :
  Max. step size             =         0.2037847439
  Conv. limit for step size  =         0.0030000000
  Convergence in step size   =                   NO
  RMS step size              =         0.0292755990
  Conv. limit for RMS step   =         0.0015000000
  Convergence in RMS step    =                   NO
  Max. gradient              =         0.0212948924
  Conv. limit for gradients  =         0.0004500000
  Conv. for gradients        =                   NO
  RMS gradient               =         0.0025544439
  Conv. limit for RMS grad.  =         0.0003000000
  Conv. for gradients        =                   NO
 ---------------------------------------------------

 --------------------------
 OPTIMIZATION STEP:     31
 --------------------------

 ENERGY| Total FORCE_EVAL ( FIST ) energy (a.u.):            -16.558026663054854


 --------  Informations at step =    31 ------------
  Optimization Method        =                LBFGS
  Total Energy               =       -16.5580266631
  Real energy change         =        -0.0010784334
  Decrease in energy         =                  YES
  Used time                  =                0.014

  Convergence check :
  Max. step size             =         0.1075353208
  Conv. limit for step size  =         0.0030000000
  Convergence in step size   =                   NO
[...]
  Max. gradient              =         0.0035473955
  Conv. limit for gradients  =         0.0004500000
  Conv. for gradients        =                   NO
  RMS gradient               =         0.0005581188
  Conv. limit for RMS grad.  =         0.0003000000
  Conv. for gradients        =                   NO
 ---------------------------------------------------

 --------------------------
 OPTIMIZATION STEP:    489
 --------------------------

 ENERGY| Total FORCE_EVAL ( FIST ) energy (a.u.):            -16.865285786868121


 --------  Informations at step =   489 ------------
  Optimization Method        =                LBFGS
  Total Energy               =       -16.8652857869
  Real energy change         =        -0.0000113154
  Decrease in energy         =                  YES
  Used time                  =                0.019

  Convergence check :
  Max. step size             =         0.0007080950
  Conv. limit for step size  =         0.0030000000
  Convergence in step size   =                  YES
  RMS step size              =         0.0000922677
  Conv. limit for RMS step   =         0.0015000000
  Convergence in RMS step    =                  YES
  Max. gradient              =         0.0026260003
  Conv. limit for gradients  =         0.0004500000
  Conv. for gradients        =                   NO
  RMS gradient               =         0.0005063229
  Conv. limit for RMS grad.  =         0.0003000000
  Conv. for gradients        =                   NO
 ---------------------------------------------------

 --------------------------
 OPTIMIZATION STEP:    490
 --------------------------

 ENERGY| Total FORCE_EVAL ( FIST ) energy (a.u.):            -16.865293157004473


 --------  Informations at step =   490 ------------
  Optimization Method        =                LBFGS
  Total Energy               =       -16.8652931570
  Real energy change         =        -0.0000073701
  Decrease in energy         =                  YES
  Used time                  =                0.018

  Convergence check :
  Max. step size             =         0.0022029962
  Conv. limit for step size  =         0.0030000000
  Convergence in step size   =                  YES
  RMS step size              =         0.0002671481
  Conv. limit for RMS step   =         0.0015000000
  Convergence in RMS step    =                  YES
  Max. gradient              =         0.0032808020
  Conv. limit for gradients  =         0.0004500000
  Conv. for gradients        =                   NO
  RMS gradient               =         0.0005419625
  Conv. limit for RMS grad.  =         0.0003000000
  Conv. for gradients        =                   NO
 ---------------------------------------------------

 --------------------------
 OPTIMIZATION STEP:    491
 --------------------------

 ENERGY| Total FORCE_EVAL ( FIST ) energy (a.u.):            -16.865303045198232


 --------  Informations at step =   491 ------------
  Optimization Method        =                LBFGS
  Total Energy               =       -16.8653030452
  Real energy change         =        -0.0000098882
  Decrease in energy         =                  YES
  Used time                  =                0.018

  Convergence check :
  Max. step size             =         0.0022851222
  Conv. limit for step size  =         0.0030000000
  Convergence in step size   =                  YES
  RMS step size              =         0.0002622859
  Conv. limit for RMS step   =         0.0015000000
  Convergence in RMS step    =                  YES
  Max. gradient              =         0.0032516136
  Conv. limit for gradients  =         0.0004500000
  Conv. for gradients        =                   NO
  RMS gradient               =         0.0005558366
  Conv. limit for RMS grad.  =         0.0003000000
  Conv. for gradients        =                   NO
 ---------------------------------------------------

 --------------------------
 OPTIMIZATION STEP:    492
 --------------------------

 ENERGY| Total FORCE_EVAL ( FIST ) energy (a.u.):            -16.865313193852757


 --------  Informations at step =   492 ------------
  Optimization Method        =                LBFGS
  Total Energy               =       -16.8653131939
  Real energy change         =        -0.0000101487
  Decrease in energy         =                  YES
  Used time                  =                0.018

  Convergence check :
  Max. step size             =         0.0034405726
  Conv. limit for step size  =         0.0030000000
  Convergence in step size   =                   NO
  RMS step size              =         0.0003923955
  Conv. limit for RMS step   =         0.0015000000
  Convergence in RMS step    =                  YES
  Max. gradient              =         0.0031491460
  Conv. limit for gradients  =         0.0004500000
  Conv. for gradients        =                   NO
  RMS gradient               =         0.0005331875
  Conv. limit for RMS grad.  =         0.0003000000
  Conv. for gradients        =                   NO
 ---------------------------------------------------

 --------------------------
 OPTIMIZATION STEP:    493
 --------------------------

 ENERGY| Total FORCE_EVAL ( FIST ) energy (a.u.):            -16.865320736634512


 --------  Informations at step =   493 ------------
  Optimization Method        =                LBFGS
  Total Energy               =       -16.8653207366
  Real energy change         =        -0.0000075428
  Decrease in energy         =                  YES
  Used time                  =                0.019

  Convergence check :
  Max. step size             =         0.0037115787
  Conv. limit for step size  =         0.0030000000
  Convergence in step size   =                   NO
  RMS step size              =         0.0004219663
  Conv. limit for RMS step   =         0.0015000000
  Convergence in RMS step    =                  YES
  Max. gradient              =         0.0068361111
  Conv. limit for gradients  =         0.0004500000
  Conv. for gradients        =                   NO
  RMS gradient               =         0.0006488976
  Conv. limit for RMS grad.  =         0.0003000000
  Conv. for gradients        =                   NO
 ---------------------------------------------------

 --------------------------
 OPTIMIZATION STEP:    494
 --------------------------

 ENERGY| Total FORCE_EVAL ( FIST ) energy (a.u.):            -16.865327757774608


 --------  Informations at step =   494 ------------
  Optimization Method        =                LBFGS
  Total Energy               =       -16.8653277578
  Real energy change         =        -0.0000070211
  Decrease in energy         =                  YES
  Used time                  =                0.017

  Convergence check :
  Max. step size             =         0.0021979541
  Conv. limit for step size  =         0.0030000000
  Convergence in step size   =                  YES
  RMS step size              =         0.0002532045
  Conv. limit for RMS step   =         0.0015000000
  Convergence in RMS step    =                  YES
  Max. gradient              =         0.0035592041
  Conv. limit for gradients  =         0.0004500000
  Conv. for gradients        =                   NO
  RMS gradient               =         0.0005497707
  Conv. limit for RMS grad.  =         0.0003000000
  Conv. for gradients        =                   NO
 ---------------------------------------------------

 --------------------------
 OPTIMIZATION STEP:    495
 --------------------------

 ENERGY| Total FORCE_EVAL ( FIST ) energy (a.u.):            -16.865338545964661


 --------  Informations at step =   495 ------------
  Optimization Method        =                LBFGS
  Total Energy               =       -16.8653385460
  Real energy change         =        -0.0000107882
  Decrease in energy         =                  YES
  Used time                  =                0.019

  Convergence check :
  Max. step size             =         0.0024345275
  Conv. limit for step size  =         0.0030000000
  Convergence in step size   =                  YES
  RMS step size              =         0.0002849210
  Conv. limit for RMS step   =         0.0015000000
  Convergence in RMS step    =                  YES
  Max. gradient              =         0.0035527567
  Conv. limit for gradients  =         0.0004500000
  Conv. for gradients        =                   NO
  RMS gradient               =         0.0005693366
  Conv. limit for RMS grad.  =         0.0003000000
  Conv. for gradients        =                   NO
 ---------------------------------------------------

 --------------------------
 OPTIMIZATION STEP:    496
 --------------------------

 ENERGY| Total FORCE_EVAL ( FIST ) energy (a.u.):            -16.865350446477862


 --------  Informations at step =   496 ------------
  Optimization Method        =                LBFGS
  Total Energy               =       -16.8653504465
  Real energy change         =        -0.0000119005
  Decrease in energy         =                  YES
  Used time                  =                0.018

  Convergence check :
  Max. step size             =         0.0029925918
  Conv. limit for step size  =         0.0030000000
  Convergence in step size   =                  YES
  RMS step size              =         0.0003654476
  Conv. limit for RMS step   =         0.0015000000
  Convergence in RMS step    =                  YES
  Max. gradient              =         0.0040116067
  Conv. limit for gradients  =         0.0004500000
  Conv. for gradients        =                   NO
  RMS gradient               =         0.0006118773
  Conv. limit for RMS grad.  =         0.0003000000
  Conv. for gradients        =                   NO
 ---------------------------------------------------

 --------------------------
 OPTIMIZATION STEP:    497
 --------------------------

 ENERGY| Total FORCE_EVAL ( FIST ) energy (a.u.):            -16.865361525700617


 --------  Informations at step =   497 ------------
  Optimization Method        =                LBFGS
  Total Energy               =       -16.8653615257
  Real energy change         =        -0.0000110792
  Decrease in energy         =                  YES
  Used time                  =                0.019

  Convergence check :
  Max. step size             =         0.0020572499
  Conv. limit for step size  =         0.0030000000
  Convergence in step size   =                  YES
  RMS step size              =         0.0002447415
  Conv. limit for RMS step   =         0.0015000000
  Convergence in RMS step    =                  YES
  Max. gradient              =         0.0042017805
  Conv. limit for gradients  =         0.0004500000
  Conv. for gradients        =                   NO
  RMS gradient               =         0.0005523982
  Conv. limit for RMS grad.  =         0.0003000000
  Conv. for gradients        =                   NO
 ---------------------------------------------------

 --------------------------
 OPTIMIZATION STEP:    498
 --------------------------

 ENERGY| Total FORCE_EVAL ( FIST ) energy (a.u.):            -16.865375069631177


 --------  Informations at step =   498 ------------
  Optimization Method        =                LBFGS
  Total Energy               =       -16.8653750696
  Real energy change         =        -0.0000135439
  Decrease in energy         =                  YES
  Used time                  =                0.018

  Convergence check :
  Max. step size             =         0.0058392560
  Conv. limit for step size  =         0.0030000000
  Convergence in step size   =                   NO
  RMS step size              =         0.0006819486
  Conv. limit for RMS step   =         0.0015000000
  Convergence in RMS step    =                  YES
  Max. gradient              =         0.0031026106
  Conv. limit for gradients  =         0.0004500000
  Conv. for gradients        =                   NO
  RMS gradient               =         0.0005684819
  Conv. limit for RMS grad.  =         0.0003000000
  Conv. for gradients        =                   NO
 ---------------------------------------------------

 --------------------------
 OPTIMIZATION STEP:    499
 --------------------------

 ENERGY| Total FORCE_EVAL ( FIST ) energy (a.u.):            -16.865382023180224


 --------  Informations at step =   499 ------------
  Optimization Method        =                LBFGS
  Total Energy               =       -16.8653820232
  Real energy change         =        -0.0000069535
  Decrease in energy         =                  YES
  Used time                  =                0.015

  Convergence check :
  Max. step size             =         0.0030604138
  Conv. limit for step size  =         0.0030000000
  Convergence in step size   =                   NO
  RMS step size              =         0.0003572475
  Conv. limit for RMS step   =         0.0015000000
  Convergence in RMS step    =                  YES
  Max. gradient              =         0.0051798491
  Conv. limit for gradients  =         0.0004500000
  Conv. for gradients        =                   NO
  RMS gradient               =         0.0005535022
  Conv. limit for RMS grad.  =         0.0003000000
  Conv. for gradients        =                   NO
 ---------------------------------------------------

 --------------------------
 OPTIMIZATION STEP:    500
 --------------------------

 ENERGY| Total FORCE_EVAL ( FIST ) energy (a.u.):            -16.865392539225610


 --------  Informations at step =   500 ------------
  Optimization Method        =                LBFGS
  Total Energy               =       -16.8653925392
  Real energy change         =        -0.0000105160
  Decrease in energy         =                  YES
  Used time                  =                0.016

  Convergence check :
  Max. step size             =         0.0026730683
  Conv. limit for step size  =         0.0030000000
  Convergence in step size   =                  YES
  RMS step size              =         0.0003173844
  Conv. limit for RMS step   =         0.0015000000
  Convergence in RMS step    =                  YES
  Max. gradient              =         0.0033780345
  Conv. limit for gradients  =         0.0004500000
  Conv. for gradients        =                   NO
  RMS gradient               =         0.0005290980
  Conv. limit for RMS grad.  =         0.0003000000
  Conv. for gradients        =                   NO
 ---------------------------------------------------

 *** MAXIMUM NUMBER OF OPTIMIZATION STEPS REACHED ***
 ***        EXITING GEOMETRY OPTIMIZATION         ***

 -------------------------------------------------------------------------------
 -                                                                             -
 -                                DBCSR STATISTICS                             -
 -                                                                             -
 -------------------------------------------------------------------------------
 COUNTER                                    TOTAL       BLAS       SMM       ACC
 flops inhomo. stacks                           0       0.0%      0.0%      0.0%
 flops total                         0.000000E+00       0.0%      0.0%      0.0%
 flops max/rank                      0.000000E+00       0.0%      0.0%      0.0%
 matmuls inhomo. stacks                         0       0.0%      0.0%      0.0%
 matmuls total                                  0       0.0%      0.0%      0.0%
 number of processed stacks                     0       0.0%      0.0%      0.0%
 average stack size                                     0.0       0.0       0.0
 marketing flops                     0.000000E+00
 -------------------------------------------------------------------------------

 MEMORY| Estimated peak process memory [MiB]                                   0

 -------------------------------------------------------------------------------
 -                                                                             -
 -                           R E F E R E N C E S                               -
 -                                                                             -
 -------------------------------------------------------------------------------
 
 CP2K version 6.1, the CP2K developers group (2018).
 CP2K is freely available from https://www.cp2k.org/ .

 Schuett, Ole; Messmer, Peter; Hutter, Juerg; VandeVondele, Joost. 
 Electronic Structure Calculations on Graphics Processing Units, John Wiley & Sons, Ltd, 173-190 (2016). 
 GPU-Accelerated Sparse Matrix-Matrix Multiplication for Linear Scaling Density Functional Theory.
 http://dx.doi.org/10.1002/9781118670712.ch8


 Borstnik, U; VandeVondele, J; Weber, V; Hutter, J. 
 PARALLEL COMPUTING, 40 (5-6), 47-58 (2014). 
 Sparse matrix multiplication: The distributed block-compressed sparse
 row library.
 http://dx.doi.org/10.1016/j.parco.2014.03.012


 Hutter, J; Iannuzzi, M; Schiffmann, F; VandeVondele, J. 
 WILEY INTERDISCIPLINARY REVIEWS-COMPUTATIONAL MOLECULAR SCIENCE, 4 (1), 15-25 (2014). 
 CP2K: atomistic simulations of condensed matter systems.
 http://dx.doi.org/10.1002/wcms.1159


 Frigo, M; Johnson, SG. 
 PROCEEDINGS OF THE IEEE, 93 (2), 216-231 (2005). 
 The design and implementation of FFTW3.
 http://dx.doi.org/10.1109/JPROC.2004.840301


 BYRD, RH; LU, PH; NOCEDAL, J; ZHU, CY. 
 SIAM JOURNAL ON SCIENTIFIC COMPUTING, 16 (5), 1190-1208 (1995). 
 A LIMITED MEMORY ALGORITHM FOR BOUND CONSTRAINED OPTIMIZATION.
 http://dx.doi.org/10.1137/0916069


 -------------------------------------------------------------------------------
 -                                                                             -
 -                                T I M I N G                                  -
 -                                                                             -
 -------------------------------------------------------------------------------
 SUBROUTINE                       CALLS  ASD         SELF TIME        TOTAL TIME
                                MAXIMUM       AVERAGE  MAXIMUM  AVERAGE  MAXIMUM
 CP2K                                 1  1.0    0.003    0.003   18.050   18.050
 cp_geo_opt                           1  2.0    0.000    0.000   18.022   18.022
 geoopt_lbfgs                         1  3.0    0.022    0.022   18.022   18.022
 cp_opt_gopt_step                   500  4.0    0.127    0.127   17.998   17.998
 cp_eval_at                         501  5.0    0.058    0.058   13.953   13.953
 fist_calc_energy_force             501  6.0    0.034    0.034   13.873   13.873
 force_nonbond                      501  7.0   13.624   13.624   13.624   13.624
 write_restart                      500  5.0    1.567    1.567    3.218    3.218
 update_input                       500  6.0    0.010    0.010    1.650    1.650
 update_subsys                      500  7.0    0.017    0.017    1.633    1.633
 section_coord_val_set              500  8.0    1.612    1.612    1.612    1.612
 write_trajectory                  1000  5.0    0.152    0.152    0.696    0.696
 write_particle_coordinates         500  6.0    0.544    0.544    0.544    0.544
 -------------------------------------------------------------------------------

 The number of warnings for this run is : 4
 
 -------------------------------------------------------------------------------
  **** **** ******  **  PROGRAM ENDED AT                 2020-03-19 17:55:09.592
 ***** ** ***  *** **   PROGRAM RAN ON                         bass-macbook.home
 **    ****   ******    PROGRAM RAN BY                                  bvanbeek
 ***** **    ** ** **   PROGRAM PROCESS ID                                 85942
  **** **  *******  **  PROGRAM STOPPED IN /Users/bvanbeek/Documents/GitHub/qmfl
                                           ows/test/test_files/plams_workdir.006
                                           /cp2k_mm_opt
