 
Create H   file=SZ-H
xc
  lda
End

 *******************************************************************************
 *                                                                             *
 *  --------------------------------                                           *
 *   Amsterdam Modeling Suite (AMS)              2019.302                      *
 *  --------------------------------                                           *
 *                                               r80089 2019-12-11             *
 *                                                                             *
 *                                                                             *
 *                              =================                              *
 *                              |               |                              *
 *                              |     A D F     |                              *
 *                              |               |                              *
 *                              =================                              *
 *                                                                             *
 *                                                                             *
 *   Online information and documentation:  https://www.scm.com/support/       *
 *   E-mail:  support@scm.com   info@scm.com                                   *
 *                                                                             *
 *   Scientific publications using AMS results must be properly referenced     *
 *   See the User Manuals (or the web site) for recommended citations          *
 *   The terms and conditions of the End User License Agreement apply to       *
 *   the use of AMS, https://www.scm.com/license-terms/                        *
 *                                                                             *
 **********************  x86_64_linux_intel / intelmpi  ************************
 
 Licensed to: SURF-SARA, Comp. & Networking Services / Amsterdam / NL
 SCM User ID: u7409
  
 ADF 2019.302  RunTime: Mar13-2020 16:58:09  Nodes: 1  Procs: 1

 Temporary files are created in /scratch/shared/fza900/adftmp/kid_0.290793611 (0xBD00BD0)

 Hydrogen (SZ)



 ===========================
 A T T A C H E D   F I L E S
 ===========================
  
 CREATE - Data File:    SZ-H
                        Hydrogen (SZ)



 ===============================
 M O D E L   P A R A M E T E R S
 ===============================
  
 DENSITY FUNCTIONAL POTENTIAL (scf)
    LDA:                               VWN                                      
    Gradient Corrections:              ---                                      

 SPIN  (restricted / unrestr.)
    Molecule:                          Restricted                               

 OTHER ASPECTS
    Relativistic Corrections:          ---                                      

    Nuclear Charge Density Model:      Point Charge Nuclei                      
    Core Treatment:                    Frozen Orbital(s)                        

    Hyperfine or Zeeman Interaction:   ---                                      



 =====================================
 S Y M M E T R Y ,   E L E C T R O N S
 =====================================
  
 Symmetry: ATOM

 Irreducible Representations, including subspecies
 -------------------------------------------------
 S
 P:x  P:y  P:z
 D:z2  D:x2-y2  D:xy  D:xz  D:yz
 F:z3  F:z  F:xyz  F:z2x  F:z2y  F:x  F:y


 Configuration of Valence Electrons
 ==================================

          Occupation Numbers
          -------------------------------------------------
 S        1
 P        0
 D        0
 F        0
          -------------------------------------------------

 Total:   1

 Net Charge: 0 (Nuclei minus Electrons)

 Preset values for MO occupations will be applied through SCF cycle no. 1000000
 Thereafter, the program will assign electrons to MOs that are spatially
 similar to the occupied MOs in a "reference" cycle ("KeepOrbitals").
 The reference cycle is always the PREVIOUS cycle: it will evolve with
 the SCF procedure.



 ================================
 (Slater-type)  F U N C T I O N S  ***  (Basis and Fit)  ***
 ================================
  

 Atom Type    1  (H)
 ==============

 Valence Basis Sets:   1
 -----------------------
   1 S    1.240000


 BAS: List of all Elementary Cartesian Basis Functions
 =====================================================

 The numbering in the list below (to the right of the function characteristics) is referred
 to in print-outs of MO eigenvectors and Mulliken populations in the BAS representation
 (as contrasted to the SFO representation).

 Notes:
 1. The functions are characterized by a polynomial prefactor (powers of x,y,z and r) and
    an exponential decay factor alpha.
 2. Since the basis sets are specific for an atom TYPE, the individual functions occur on
    all atoms of that type.
 3. The word 'Core' in the left margin signals that it is a Core Function (CF) : not a
    degree of freedom in the valence set, but only used to ensure orthogonalization of
    the other valence basis functions on the frozen Core Orbitals.


 (power of) X  Y  Z  R     Alpha  on Atom
            ==========     =====     ==========

 H                                    1
                                  ---------------------------------------------------------------------------
            0  0  0  0     1.240      1

 Total number of charge fitting functions (nprimf)        50
 Total number of Cartesian basis functions (naos)          1
 Total number of Cartesian core functions  (ncos)          0



 BAS: List of all Elementary Cartesian Basis Functions
 =====================================================

 The numbering in the list below (to the right of the function characteristics) is referred
 to in print-outs of MO eigenvectors and Mulliken populations in the BAS representation
 (as contrasted to the SFO representation).

 Notes:
 1. The functions are characterized by a polynomial prefactor (powers of x,y,z and r) and
    an exponential decay factor alpha.
 2. Since the basis sets are specific for an atom TYPE, the individual functions occur on
    all atoms of that type.
 3. The word 'Core' in the left margin signals that it is a Core Function (CF) : not a
    degree of freedom in the valence set, but only used to ensure orthogonalization of
    the other valence basis functions on the frozen Core Orbitals.


 (power of) X  Y  Z  R     Alpha  on Atom
            ==========     =====     ==========

 H                                    1
                                  ---------------------------------------------------------------------------
            0  0  0  0     1.240      1
1
 ***************************************************************************************************



                                              ***********************
                                              *  T E C H N I C A L  *
                                              ***********************
  



 =============================================================
 P A R A L L E L I Z A T I O N  and  V E C T O R I Z A T I O N
 =============================================================
  
 Nr of parallel processes:                                1
 Maximum vector length in NumInt loops:                 128



 =====================
 S C F   U P D A T E S
 =====================
  
 Max. nr. of cycles:                               300
 Convergence criterion:                              0.0000000100
   secondary criterion:                              0.0000000100

 Mix parameter (when DIIS does not apply):           0.2000000000
 Special mix parameter for the first cycle:          1.0000000000
 Mixed ADIIS+SDIIS will be used                  
    Max number of expansion vectors:                10
    Pure ADIIS when Max([F,P]) is above              0.1000000000
    Pure SDIIS when Max([F,P]) is below              0.0010000000
 Automatic ElectronSmearing (in case of problematic SCF convergence) disabled



 =================
 P R E C I S I O N  ***  (General: NumInt, NeglectFunctionTails, ...)  ***
 =================
  

 NumInt:           Target precision:                12.0000000000
 -------           Initial precision:               10.0000000000
                   Min. precision (optimization):   10.0000000000

 Neglect Functions:          Basis functions:        0.1000000000E-13
 ------------------          Fit functions:          0.1000000000E-13



 ===========================
 L I N E A R   S C A L I N G
 ===========================
  

 Cut-off radii density fit:                        0.1000000000E-97
 Overlap cut-off criterion AO matrix elements:     0.1000000000E-97
 Cut-offs for Coulomb potential and fitted density:0.1000000000E-97
 Cut-off criterion for Coulomb multipole terms:    0.1000000000E-97
 Progressive Convergence parameter:                 0.000000000    
1
 ***************************************************************************************************



                                            ***************************
                                            *  C O M P U T A T I O N  *
                                            ***************************
  

 Number of elements of the density matrix on this node (used, total):         1         1



 ===========================================
 Numerical Integration : Fuzzy Cells (Becke)
 ===========================================
  
 Becke grid quality: VERYGOOD       
  
 Lebedev angular grid order:             min:  13 max:  41
 Nr. of radial points:                   min:  64 max:  64

 Total nr. of points:         64
 Nr. of blocks:                1
 Block length:                64
 Nr. of dummy points:          0


 Test of Precision of the Numerical Integration Grid
 ===================================================

 Integral of the Total Core Density:                   0.00000000000000



 ========================
 Density Fitting (zlmFit)
 ========================
  
 ZlmFit Fit Quality: VERYGOOD       
  
 Max L-expansion:                        min:   0 max:   0
 Nr. of radial interpolation points:     min: 120 max: 120



 =====
 S C F  ***  ScaSCF  ***
 =====
  

 CYCLE    1
 SCF Error: norm([F,P])=      0.000000000000, max([F,P])=      0.000000000000
 orbitals (Q,E):
 ---------------
 S :1...1            ( 1.00    -0.4712)

 CYCLE    2
 SCF Error: norm([F,P])=      0.000000000000, max([F,P])=      0.000000000000
 orbitals (Q,E):
 ---------------
 S :1...1            ( 1.00    -0.1004)

 SCF CONVERGED

 CYCLE    3
1
 ***************************************************************************************************



                                                *******************
                                                *  R E S U L T S  *
                                                *******************
  
 *** Using FIT density in Focky
  SDIIS (wt  0.000): -2.0000  3.0000
 A-DIIS (wt  1.000):  0.0000  1.0000
  DIIS coefficients:  0.0000  1.0000
 SCF Error: norm([F,P])=      0.000000000000, max([F,P])=      0.000000000000

 Orbital Energies, per Irrep and Spin:
 ======================================
                        Occup              E (au)              E (eV)       Diff (eV) with prev. cycle
                        -----      --------------------        ------       --------------------------
 S
               1        1.000     -0.10037931397043E+00        -2.731               0.00E+00


 Partially Occupied:
               1 S                -0.10037931397043E+00
  


 All Electron Calculation, thus no Orbital Energies of the Core Orbitals are calculated



 =======================================
 M U L L I K E N   P O P U L A T I O N S
 =======================================
  
 The survey below gives for each atom:
 a) the total charge (Z minus electrons)
 b) the net spin polarization (nr of electrons spin-A minus spin-B)
 c) for each spin the atomic electron valence density (integrated) per L-value.

 Atom              Charge    Spin density          S         P         D         F
 ----              ------    ------------       ------    ------    ------    ------
 1 H               0.0000                       1.0000    0.0000    0.0000    0.0000

 Populations of individual BAS functions
 ----------------------------------------
 1 H            1.0000

 Gross Charges per Atom (Z minus electrons)
 ==========================================
             0.0000
 Net Total:  0.00000000



 =======================================================================
 Electrostatic potential at the Nuclei due to electrons and other nuclei
 =======================================================================
  
         Atom                  Potential
         ----                  ---------
     1)   H                   1.23999837
 
 
 ========================
 No memory problems found
 ========================
 
 Maximum number of active allocate calls:         262
 
 *******************************************************************************

                             A D F   E X I T
 NORMAL TERMINATION



 =================
 Timing Statistics
 =================
  
 Total Used :                     CPU=        0.29      System=        0.06     Elapsed=        0.56

 Calls  Section                     ( Mean, Percentage )
 ---------------------------------------------------------------------------------------------------
     3  ><      ................      0.00    1.06             0.00    2.72             0.00    1.48
     1  INIT    ................      0.08   26.73             0.02   26.52             0.18   32.68
     1  GEOMET  ................      0.02    6.11             0.01   23.76             0.06   10.38
     1  INPUTA  ................      0.00    1.19             0.00    3.68             0.02    2.78
     1  MAINSY  ................      0.01    3.31             0.00    7.51             0.04    7.55
     1  SYMFIT  ................      0.00    0.29             0.00    1.56             0.00    0.32
     1  CORORT  ................      0.00    0.18             0.00    1.69             0.00    0.57
     1  SYMORB  ................      0.00    0.36             0.00    0.00             0.00    0.26
     1  CLSMAT  ................      0.01    1.96             0.00    1.36             0.01    1.58
     1  ORTHON  ................      0.00    1.49             0.00    0.34             0.01    1.09
     1  GENPT   ................      0.01    3.41             0.00    2.56             0.01    2.68
     1  PTBAS   ................      0.00    1.52             0.00    1.57             0.01    1.38
     3  FOCKY   ................      0.04   37.44             0.00   14.18             0.04   22.93
     3  FOCKTR  ................      0.00    0.55             0.00    0.27             0.00    0.33
     3  SDIIS   ................      0.00    2.86             0.00    7.47             0.01    5.92
     1  COREPS  ................      0.01    4.47             0.00    2.15             0.02    2.71
     1  POPAN   ................      0.00    1.64             0.00    0.00             0.01    1.15
     1  DEBYE   ................      0.00    0.68             0.00    0.00             0.00    0.64
     1  EXIT PROCEDURE .........      0.01    4.74             0.00    2.64             0.02    3.58


 Currently Open Files (EXIT00)
 ====================

 Unit    Access Format  Status   Type       Ident (file)
 -------------------------------------------------------
   3      SEQ    FORM   TRANSP  NORMAL      LOGFILE
                                          ( logfile )

 ***************************************************************************************************
 (LOGFILE)
 <Mar13-2020> <16:58:09>  ADF 2019.302  RunTime: Mar13-2020 16:58:09  Nodes: 1  Procs: 1
 <Mar13-2020> <16:58:09>  Hydrogen (SZ)
 <Mar13-2020> <16:58:09>  RunType   : CREATE
 <Mar13-2020> <16:58:09>  Net Charge: 0 (Nuclei minus Electrons)
 <Mar13-2020> <16:58:09>  Symmetry  : ATOM
  Coordinates
    Atom         X           Y           Z   (Angstrom)
    1.H         0.000000    0.000000    0.000000
 <Mar13-2020> <16:58:09>  >>>> CORORT
 <Mar13-2020> <16:58:09>  >>>> CLSMAT
 <Mar13-2020> <16:58:09>  >>>> ORTHON
 <Mar13-2020> <16:58:09>  >>>> GENPT
 <Mar13-2020> <16:58:09>  Block Length=  64
 <Mar13-2020> <16:58:09>  >>>> PTBAS
 <Mar13-2020> <16:58:09>  >>>> CYCLE
 <Mar13-2020> <16:58:09>              |Error|         MaxErr       Wt(A-DIIS)
 <Mar13-2020> <16:58:09>      1      0.00000000      0.00000000
 <Mar13-2020> <16:58:09>      2      0.00000000      0.00000000
 <Mar13-2020> <16:58:09>  SCF converged
 <Mar13-2020> <16:58:09>      3      0.00000000      0.00000000    100.0
 <Mar13-2020> <16:58:09>  >>>> POPAN
 <Mar13-2020> <16:58:09>  >>>> DEBYE
 <Mar13-2020> <16:58:09>  NORMAL TERMINATION
 <Mar13-2020> <16:58:09>  END
 
Create N   file=SZ-N.1s
xc
  lda
End

 *******************************************************************************
 *                                                                             *
 *  --------------------------------                                           *
 *   Amsterdam Modeling Suite (AMS)              2019.302                      *
 *  --------------------------------                                           *
 *                                               r80089 2019-12-11             *
 *                                                                             *
 *                                                                             *
 *                              =================                              *
 *                              |               |                              *
 *                              |     A D F     |                              *
 *                              |               |                              *
 *                              =================                              *
 *                                                                             *
 *                                                                             *
 *   Online information and documentation:  https://www.scm.com/support/       *
 *   E-mail:  support@scm.com   info@scm.com                                   *
 *                                                                             *
 *   Scientific publications using AMS results must be properly referenced     *
 *   See the User Manuals (or the web site) for recommended citations          *
 *   The terms and conditions of the End User License Agreement apply to       *
 *   the use of AMS, https://www.scm.com/license-terms/                        *
 *                                                                             *
 **********************  x86_64_linux_intel / intelmpi  ************************
 
 Licensed to: SURF-SARA, Comp. & Networking Services / Amsterdam / NL
 SCM User ID: u7409
  
 ADF 2019.302  RunTime: Mar13-2020 16:58:10  Nodes: 1  Procs: 1

 Temporary files are created in /scratch/shared/fza900/adftmp/kid_0.763530062 (0xBD00BD0)

 Nitrogen (SZ, 1s frozen)



 ===========================
 A T T A C H E D   F I L E S
 ===========================
  
 CREATE - Data File:    SZ-N.1s
                        Nitrogen (SZ, 1s frozen)



 ===============================
 M O D E L   P A R A M E T E R S
 ===============================
  
 DENSITY FUNCTIONAL POTENTIAL (scf)
    LDA:                               VWN                                      
    Gradient Corrections:              ---                                      

 SPIN  (restricted / unrestr.)
    Molecule:                          Restricted                               

 OTHER ASPECTS
    Relativistic Corrections:          ---                                      

    Nuclear Charge Density Model:      Point Charge Nuclei                      
    Core Treatment:                    Frozen Orbital(s)                        

    Hyperfine or Zeeman Interaction:   ---                                      



 =====================================
 S Y M M E T R Y ,   E L E C T R O N S
 =====================================
  
 Symmetry: ATOM

 Irreducible Representations, including subspecies
 -------------------------------------------------
 S
 P:x  P:y  P:z
 D:z2  D:x2-y2  D:xy  D:xz  D:yz
 F:z3  F:z  F:xyz  F:z2x  F:z2y  F:x  F:y


 Configuration of Valence Electrons
 ==================================

          Occupation Numbers
          -------------------------------------------------
 S        2
 P        3
 D        0
 F        0
          -------------------------------------------------

 Total:   5

 Net Charge: 0 (Nuclei minus Electrons)

 Preset values for MO occupations will be applied through SCF cycle no. 1000000
 Thereafter, the program will assign electrons to MOs that are spatially
 similar to the occupied MOs in a "reference" cycle ("KeepOrbitals").
 The reference cycle is always the PREVIOUS cycle: it will evolve with
 the SCF procedure.



 ================================
 (Slater-type)  F U N C T I O N S  ***  (Basis and Fit)  ***
 ================================
  

 Atom Type    1  (N)
 ==============

 Valence Basis Sets:   3
 -----------------------
   1 S    6.670000
   2 S    1.950000
   2 P    1.950000

 Frozen Core Shells
 ------------------
    S:  1


 BAS: List of all Elementary Cartesian Basis Functions
 =====================================================

 The numbering in the list below (to the right of the function characteristics) is referred
 to in print-outs of MO eigenvectors and Mulliken populations in the BAS representation
 (as contrasted to the SFO representation).

 Notes:
 1. The functions are characterized by a polynomial prefactor (powers of x,y,z and r) and
    an exponential decay factor alpha.
 2. Since the basis sets are specific for an atom TYPE, the individual functions occur on
    all atoms of that type.
 3. The word 'Core' in the left margin signals that it is a Core Function (CF) : not a
    degree of freedom in the valence set, but only used to ensure orthogonalization of
    the other valence basis functions on the frozen Core Orbitals.


 (power of) X  Y  Z  R     Alpha  on Atom
            ==========     =====     ==========

 N                                    1
                                  ---------------------------------------------------------------------------
    Core    0  0  0  0     6.670      1
            0  0  0  1     1.950      2
            1  0  0  0     1.950      3
            0  1  0  0     1.950      4
            0  0  1  0     1.950      5

 Total number of charge fitting functions (nprimf)        84
 Total number of Cartesian basis functions (naos)          5
 Total number of Cartesian core functions  (ncos)          1



 BAS: List of all Elementary Cartesian Basis Functions
 =====================================================

 The numbering in the list below (to the right of the function characteristics) is referred
 to in print-outs of MO eigenvectors and Mulliken populations in the BAS representation
 (as contrasted to the SFO representation).

 Notes:
 1. The functions are characterized by a polynomial prefactor (powers of x,y,z and r) and
    an exponential decay factor alpha.
 2. Since the basis sets are specific for an atom TYPE, the individual functions occur on
    all atoms of that type.
 3. The word 'Core' in the left margin signals that it is a Core Function (CF) : not a
    degree of freedom in the valence set, but only used to ensure orthogonalization of
    the other valence basis functions on the frozen Core Orbitals.


 (power of) X  Y  Z  R     Alpha  on Atom
            ==========     =====     ==========

 N                                    1
                                  ---------------------------------------------------------------------------
    Core    0  0  0  0     6.670      1
            0  0  0  1     1.950      2
            1  0  0  0     1.950      3
            0  1  0  0     1.950      4
            0  0  1  0     1.950      5
1
 ***************************************************************************************************



                                              ***********************
                                              *  T E C H N I C A L  *
                                              ***********************
  



 =============================================================
 P A R A L L E L I Z A T I O N  and  V E C T O R I Z A T I O N
 =============================================================
  
 Nr of parallel processes:                                1
 Maximum vector length in NumInt loops:                 128



 =====================
 S C F   U P D A T E S
 =====================
  
 Max. nr. of cycles:                               300
 Convergence criterion:                              0.0000000100
   secondary criterion:                              0.0000000100

 Mix parameter (when DIIS does not apply):           0.2000000000
 Special mix parameter for the first cycle:          1.0000000000
 Mixed ADIIS+SDIIS will be used                  
    Max number of expansion vectors:                10
    Pure ADIIS when Max([F,P]) is above              0.1000000000
    Pure SDIIS when Max([F,P]) is below              0.0010000000
 Automatic ElectronSmearing (in case of problematic SCF convergence) disabled



 =================
 P R E C I S I O N  ***  (General: NumInt, NeglectFunctionTails, ...)  ***
 =================
  

 NumInt:           Target precision:                12.0000000000
 -------           Initial precision:               10.0000000000
                   Min. precision (optimization):   10.0000000000

 Neglect Functions:          Basis functions:        0.1000000000E-13
 ------------------          Fit functions:          0.1000000000E-13



 ===========================
 L I N E A R   S C A L I N G
 ===========================
  

 Cut-off radii density fit:                        0.1000000000E-97
 Overlap cut-off criterion AO matrix elements:     0.1000000000E-97
 Cut-offs for Coulomb potential and fitted density:0.1000000000E-97
 Cut-off criterion for Coulomb multipole terms:    0.1000000000E-97
 Progressive Convergence parameter:                 0.000000000    
1
 ***************************************************************************************************



                                            ***************************
                                            *  C O M P U T A T I O N  *
                                            ***************************
  

 Number of elements of the density matrix on this node (used, total):        15        15



 ===========================================
 Numerical Integration : Fuzzy Cells (Becke)
 ===========================================
  
 Becke grid quality: VERYGOOD       
  
 Lebedev angular grid order:             min:  13 max:  41
 Nr. of radial points:                   min:  68 max:  68

 Total nr. of points:         68
 Nr. of blocks:                1
 Block length:                68
 Nr. of dummy points:          0


 Test of Precision of the Numerical Integration Grid
 ===================================================

 Integral of the Total Core Density:                   1.99999999979028
 Relative Error:                                      -1.049E-10



 ========================
 Density Fitting (zlmFit)
 ========================
  
 ZlmFit Fit Quality: VERYGOOD       
  
 Max L-expansion:                        min:   0 max:   0
 Nr. of radial interpolation points:     min: 150 max: 150



 =====
 S C F  ***  ScaSCF  ***
 =====
  

 CYCLE    1
 SCF Error: norm([F,P])=      0.000000000000, max([F,P])=      0.000000000000
 orbitals (Q,E):
 ---------------
 S :1...1            ( 2.00    -3.5533)
 P :1...1            ( 3.00    -3.1490)

 CYCLE    2
 SCF Error: norm([F,P])=      0.000000000000, max([F,P])=      0.000000000000
 orbitals (Q,E):
 ---------------
 S :1...1            ( 2.00    -0.5581)
 P :1...1            ( 3.00    -0.1047)

 SCF CONVERGED

 CYCLE    3
1
 ***************************************************************************************************



                                                *******************
                                                *  R E S U L T S  *
                                                *******************
  
 *** Using FIT density in Focky
  SDIIS (wt  0.000): -2.0000  3.0000
 A-DIIS (wt  1.000):  0.0000  1.0000
  DIIS coefficients:  0.0000  1.0000
 SCF Error: norm([F,P])=      0.000000000000, max([F,P])=      0.000000000000

 Orbital Energies, per Irrep and Spin:
 ======================================
                        Occup              E (au)              E (eV)       Diff (eV) with prev. cycle
                        -----      --------------------        ------       --------------------------
 S
               1        2.000     -0.55812411978104E+00       -15.187               0.00E+00
 P
               1        3.000     -0.10465748856188E+00        -2.848               0.00E+00


 Partially Occupied:
               1 P                -0.10465748856188E+00
  
 HOMO :        1 S                -0.55812411978104E+00
  


 Orbital Energies, all Irreps
 ========================================

 Irrep        no.  (spin)   Occup              E (au)                E (eV)
 ---------------------------------------------------------------------------
 S             1             2.00       -0.55812411978104E+00       -15.1873
 P             1             3.00       -0.10465748856188E+00        -2.8479


 Orbital Energies of the Core Orbitals:
 ======================================
 (Note that the atoms are grouped by atomtype, see the labels, and may hence NOT be in input order)

 AtomType  Orbital  Atom                   E (au)                        E (eV)
 --------  -------  ----           --------------------        ----------------
 N           1S        1          -0.13874874471258E+02                -377.555



 =======================================
 M U L L I K E N   P O P U L A T I O N S
 =======================================
  
 The survey below gives for each atom:
 a) the total charge (Z minus electrons)
 b) the net spin polarization (nr of electrons spin-A minus spin-B)
 c) for each spin the atomic electron valence density (integrated) per L-value.

 Atom              Charge    Spin density          S         P         D         F
 ----              ------    ------------       ------    ------    ------    ------
 1 N               0.0000                       2.0000    3.0000    0.0000    0.0000

 Populations of individual BAS functions
 ----------------------------------------
 1 N            0.0092  1.9908  1.0000  1.0000  1.0000

 Gross Charges per Atom (Z minus electrons)
 ==========================================
             0.0000
 Net Total:  0.00000000



 =======================================================================
 Electrostatic potential at the Nuclei due to electrons and other nuclei
 =======================================================================
  
         Atom                  Potential
         ----                  ---------
     1)   N                  18.35704037
 
 
 ========================
 No memory problems found
 ========================
 
 Maximum number of active allocate calls:         311
 
 *******************************************************************************

                             A D F   E X I T
 NORMAL TERMINATION



 =================
 Timing Statistics
 =================
  
 Total Used :                     CPU=        0.33      System=        0.06     Elapsed=        0.61

 Calls  Section                     ( Mean, Percentage )
 ---------------------------------------------------------------------------------------------------
     3  ><      ................      0.00    0.95             0.00    2.96             0.00    1.39
     1  INIT    ................      0.08   24.09             0.00    5.39             0.09   15.38
     1  GEOMET  ................      0.02    6.32             0.01   19.32             0.19   30.79
     1  INPUTA  ................      0.00    0.66             0.00    3.46             0.00    0.70
     1  MAINSY  ................      0.01    3.00             0.01   10.33             0.03    4.64
     1  SYMFIT  ................      0.00    0.31             0.00    1.74             0.00    0.35
     1  CORORT  ................      0.00    0.23             0.00    1.58             0.00    0.60
     1  SYMORB  ................      0.00    0.36             0.00    0.12             0.00    0.27
     1  CLSMAT  ................      0.01    1.66             0.00    2.93             0.01    1.53
     1  ORTHON  ................      0.01    1.56             0.00    0.00             0.01    1.13
     1  GENPT   ................      0.01    3.98             0.00    1.98             0.02    3.08
     1  PTBAS   ................      0.01    1.87             0.00    0.22             0.01    1.50
     3  FOCKY   ................      0.05   41.61             0.00   12.23             0.05   25.30
     3  FOCKTR  ................      0.00    0.59             0.00    0.00             0.00    0.34
     3  SDIIS   ................      0.00    2.33             0.01   26.04             0.01    4.84
     1  COREPS  ................      0.02    4.92             0.00    3.92             0.02    3.12
     1  POPAN   ................      0.00    0.95             0.00    3.48             0.01    1.17
     1  DEBYE   ................      0.00    0.53             0.00    0.00             0.00    0.55
     1  EXIT PROCEDURE .........      0.01    4.07             0.00    4.30             0.02    3.35


 Currently Open Files (EXIT00)
 ====================

 Unit    Access Format  Status   Type       Ident (file)
 -------------------------------------------------------
   3      SEQ    FORM   TRANSP  NORMAL      LOGFILE
                                          ( logfile )

 ***************************************************************************************************
 (LOGFILE)
 <Mar13-2020> <16:58:09>  ADF 2019.302  RunTime: Mar13-2020 16:58:09  Nodes: 1  Procs: 1
 <Mar13-2020> <16:58:09>  Hydrogen (SZ)
 <Mar13-2020> <16:58:09>  RunType   : CREATE
 <Mar13-2020> <16:58:09>  Net Charge: 0 (Nuclei minus Electrons)
 <Mar13-2020> <16:58:09>  Symmetry  : ATOM
  Coordinates
    Atom         X           Y           Z   (Angstrom)
    1.H         0.000000    0.000000    0.000000
 <Mar13-2020> <16:58:09>  >>>> CORORT
 <Mar13-2020> <16:58:09>  >>>> CLSMAT
 <Mar13-2020> <16:58:09>  >>>> ORTHON
 <Mar13-2020> <16:58:09>  >>>> GENPT
 <Mar13-2020> <16:58:09>  Block Length=  64
 <Mar13-2020> <16:58:09>  >>>> PTBAS
 <Mar13-2020> <16:58:09>  >>>> CYCLE
 <Mar13-2020> <16:58:09>              |Error|         MaxErr       Wt(A-DIIS)
 <Mar13-2020> <16:58:09>      1      0.00000000      0.00000000
 <Mar13-2020> <16:58:09>      2      0.00000000      0.00000000
 <Mar13-2020> <16:58:09>  SCF converged
 <Mar13-2020> <16:58:09>      3      0.00000000      0.00000000    100.0
 <Mar13-2020> <16:58:09>  >>>> POPAN
 <Mar13-2020> <16:58:09>  >>>> DEBYE
 <Mar13-2020> <16:58:09>  NORMAL TERMINATION
 <Mar13-2020> <16:58:09>  END
 <Mar13-2020> <16:58:10>  ADF 2019.302  RunTime: Mar13-2020 16:58:10  Nodes: 1  Procs: 1
 <Mar13-2020> <16:58:10>  Nitrogen (SZ, 1s frozen)
 <Mar13-2020> <16:58:10>  RunType   : CREATE
 <Mar13-2020> <16:58:10>  Net Charge: 0 (Nuclei minus Electrons)
 <Mar13-2020> <16:58:10>  Symmetry  : ATOM
  Coordinates
    Atom         X           Y           Z   (Angstrom)
    1.N         0.000000    0.000000    0.000000
 <Mar13-2020> <16:58:10>  >>>> CORORT
 <Mar13-2020> <16:58:10>  >>>> CLSMAT
 <Mar13-2020> <16:58:10>  >>>> ORTHON
 <Mar13-2020> <16:58:10>  >>>> GENPT
 <Mar13-2020> <16:58:10>  Block Length=  68
 <Mar13-2020> <16:58:10>  >>>> PTBAS
 <Mar13-2020> <16:58:10>  >>>> CYCLE
 <Mar13-2020> <16:58:10>              |Error|         MaxErr       Wt(A-DIIS)
 <Mar13-2020> <16:58:10>      1      0.00000000      0.00000000
 <Mar13-2020> <16:58:10>      2      0.00000000      0.00000000
 <Mar13-2020> <16:58:10>  SCF converged
 <Mar13-2020> <16:58:10>      3      0.00000000      0.00000000    100.0
 <Mar13-2020> <16:58:10>  >>>> POPAN
 <Mar13-2020> <16:58:10>  >>>> DEBYE
 <Mar13-2020> <16:58:10>  NORMAL TERMINATION
 <Mar13-2020> <16:58:10>  END
 
Create C   file=SZ-C.1s
xc
  lda
End

 *******************************************************************************
 *                                                                             *
 *  --------------------------------                                           *
 *   Amsterdam Modeling Suite (AMS)              2019.302                      *
 *  --------------------------------                                           *
 *                                               r80089 2019-12-11             *
 *                                                                             *
 *                                                                             *
 *                              =================                              *
 *                              |               |                              *
 *                              |     A D F     |                              *
 *                              |               |                              *
 *                              =================                              *
 *                                                                             *
 *                                                                             *
 *   Online information and documentation:  https://www.scm.com/support/       *
 *   E-mail:  support@scm.com   info@scm.com                                   *
 *                                                                             *
 *   Scientific publications using AMS results must be properly referenced     *
 *   See the User Manuals (or the web site) for recommended citations          *
 *   The terms and conditions of the End User License Agreement apply to       *
 *   the use of AMS, https://www.scm.com/license-terms/                        *
 *                                                                             *
 **********************  x86_64_linux_intel / intelmpi  ************************
 
 Licensed to: SURF-SARA, Comp. & Networking Services / Amsterdam / NL
 SCM User ID: u7409
  
 ADF 2019.302  RunTime: Mar13-2020 16:58:10  Nodes: 1  Procs: 1

 Temporary files are created in /scratch/shared/fza900/adftmp/kid_0.1660819415 (0xBD00BD0)

 Carbon (SZ, 1s frozen)



 ===========================
 A T T A C H E D   F I L E S
 ===========================
  
 CREATE - Data File:    SZ-C.1s
                        Carbon (SZ, 1s frozen)



 ===============================
 M O D E L   P A R A M E T E R S
 ===============================
  
 DENSITY FUNCTIONAL POTENTIAL (scf)
    LDA:                               VWN                                      
    Gradient Corrections:              ---                                      

 SPIN  (restricted / unrestr.)
    Molecule:                          Restricted                               

 OTHER ASPECTS
    Relativistic Corrections:          ---                                      

    Nuclear Charge Density Model:      Point Charge Nuclei                      
    Core Treatment:                    Frozen Orbital(s)                        

    Hyperfine or Zeeman Interaction:   ---                                      



 =====================================
 S Y M M E T R Y ,   E L E C T R O N S
 =====================================
  
 Symmetry: ATOM

 Irreducible Representations, including subspecies
 -------------------------------------------------
 S
 P:x  P:y  P:z
 D:z2  D:x2-y2  D:xy  D:xz  D:yz
 F:z3  F:z  F:xyz  F:z2x  F:z2y  F:x  F:y


 Configuration of Valence Electrons
 ==================================

          Occupation Numbers
          -------------------------------------------------
 S        2
 P        2
 D        0
 F        0
          -------------------------------------------------

 Total:   4

 Net Charge: 0 (Nuclei minus Electrons)

 Preset values for MO occupations will be applied through SCF cycle no. 1000000
 Thereafter, the program will assign electrons to MOs that are spatially
 similar to the occupied MOs in a "reference" cycle ("KeepOrbitals").
 The reference cycle is always the PREVIOUS cycle: it will evolve with
 the SCF procedure.



 ================================
 (Slater-type)  F U N C T I O N S  ***  (Basis and Fit)  ***
 ================================
  

 Atom Type    1  (C)
 ==============

 Valence Basis Sets:   3
 -----------------------
   1 S    5.670000
   2 S    1.720000
   2 P    1.720000

 Frozen Core Shells
 ------------------
    S:  1


 BAS: List of all Elementary Cartesian Basis Functions
 =====================================================

 The numbering in the list below (to the right of the function characteristics) is referred
 to in print-outs of MO eigenvectors and Mulliken populations in the BAS representation
 (as contrasted to the SFO representation).

 Notes:
 1. The functions are characterized by a polynomial prefactor (powers of x,y,z and r) and
    an exponential decay factor alpha.
 2. Since the basis sets are specific for an atom TYPE, the individual functions occur on
    all atoms of that type.
 3. The word 'Core' in the left margin signals that it is a Core Function (CF) : not a
    degree of freedom in the valence set, but only used to ensure orthogonalization of
    the other valence basis functions on the frozen Core Orbitals.


 (power of) X  Y  Z  R     Alpha  on Atom
            ==========     =====     ==========

 C                                    1
                                  ---------------------------------------------------------------------------
    Core    0  0  0  0     5.670      1
            0  0  0  1     1.720      2
            1  0  0  0     1.720      3
            0  1  0  0     1.720      4
            0  0  1  0     1.720      5

 Total number of charge fitting functions (nprimf)        84
 Total number of Cartesian basis functions (naos)          5
 Total number of Cartesian core functions  (ncos)          1



 BAS: List of all Elementary Cartesian Basis Functions
 =====================================================

 The numbering in the list below (to the right of the function characteristics) is referred
 to in print-outs of MO eigenvectors and Mulliken populations in the BAS representation
 (as contrasted to the SFO representation).

 Notes:
 1. The functions are characterized by a polynomial prefactor (powers of x,y,z and r) and
    an exponential decay factor alpha.
 2. Since the basis sets are specific for an atom TYPE, the individual functions occur on
    all atoms of that type.
 3. The word 'Core' in the left margin signals that it is a Core Function (CF) : not a
    degree of freedom in the valence set, but only used to ensure orthogonalization of
    the other valence basis functions on the frozen Core Orbitals.


 (power of) X  Y  Z  R     Alpha  on Atom
            ==========     =====     ==========

 C                                    1
                                  ---------------------------------------------------------------------------
    Core    0  0  0  0     5.670      1
            0  0  0  1     1.720      2
            1  0  0  0     1.720      3
            0  1  0  0     1.720      4
            0  0  1  0     1.720      5
1
 ***************************************************************************************************



                                              ***********************
                                              *  T E C H N I C A L  *
                                              ***********************
  



 =============================================================
 P A R A L L E L I Z A T I O N  and  V E C T O R I Z A T I O N
 =============================================================
  
 Nr of parallel processes:                                1
 Maximum vector length in NumInt loops:                 128



 =====================
 S C F   U P D A T E S
 =====================
  
 Max. nr. of cycles:                               300
 Convergence criterion:                              0.0000000100
   secondary criterion:                              0.0000000100

 Mix parameter (when DIIS does not apply):           0.2000000000
 Special mix parameter for the first cycle:          1.0000000000
 Mixed ADIIS+SDIIS will be used                  
    Max number of expansion vectors:                10
    Pure ADIIS when Max([F,P]) is above              0.1000000000
    Pure SDIIS when Max([F,P]) is below              0.0010000000
 Automatic ElectronSmearing (in case of problematic SCF convergence) disabled



 =================
 P R E C I S I O N  ***  (General: NumInt, NeglectFunctionTails, ...)  ***
 =================
  

 NumInt:           Target precision:                12.0000000000
 -------           Initial precision:               10.0000000000
                   Min. precision (optimization):   10.0000000000

 Neglect Functions:          Basis functions:        0.1000000000E-13
 ------------------          Fit functions:          0.1000000000E-13



 ===========================
 L I N E A R   S C A L I N G
 ===========================
  

 Cut-off radii density fit:                        0.1000000000E-97
 Overlap cut-off criterion AO matrix elements:     0.1000000000E-97
 Cut-offs for Coulomb potential and fitted density:0.1000000000E-97
 Cut-off criterion for Coulomb multipole terms:    0.1000000000E-97
 Progressive Convergence parameter:                 0.000000000    
1
 ***************************************************************************************************



                                            ***************************
                                            *  C O M P U T A T I O N  *
                                            ***************************
  

 Number of elements of the density matrix on this node (used, total):        15        15



 ===========================================
 Numerical Integration : Fuzzy Cells (Becke)
 ===========================================
  
 Becke grid quality: VERYGOOD       
  
 Lebedev angular grid order:             min:  13 max:  41
 Nr. of radial points:                   min:  68 max:  68

 Total nr. of points:         68
 Nr. of blocks:                1
 Block length:                68
 Nr. of dummy points:          0


 Test of Precision of the Numerical Integration Grid
 ===================================================

 Integral of the Total Core Density:                   1.99999999985293
 Relative Error:                                      -7.354E-11



 ========================
 Density Fitting (zlmFit)
 ========================
  
 ZlmFit Fit Quality: VERYGOOD       
  
 Max L-expansion:                        min:   0 max:   0
 Nr. of radial interpolation points:     min: 150 max: 150



 =====
 S C F  ***  ScaSCF  ***
 =====
  

 CYCLE    1
 SCF Error: norm([F,P])=      0.000000000000, max([F,P])=      0.000000000000
 orbitals (Q,E):
 ---------------
 S :1...1            ( 2.00    -2.4221)
 P :1...1            ( 2.00    -2.1277)

 CYCLE    2
 SCF Error: norm([F,P])=      0.000000000000, max([F,P])=      0.000000000000
 orbitals (Q,E):
 ---------------
 S :1...1            ( 2.00    -0.3617)
 P :1...1            ( 2.00    -0.0295)

 SCF CONVERGED

 CYCLE    3
1
 ***************************************************************************************************



                                                *******************
                                                *  R E S U L T S  *
                                                *******************
  
 *** Using FIT density in Focky
  SDIIS (wt  0.000): -2.0000  3.0000
 A-DIIS (wt  1.000):  0.0000  1.0000
  DIIS coefficients:  0.0000  1.0000
 SCF Error: norm([F,P])=      0.000000000000, max([F,P])=      0.000000000000

 Orbital Energies, per Irrep and Spin:
 ======================================
                        Occup              E (au)              E (eV)       Diff (eV) with prev. cycle
                        -----      --------------------        ------       --------------------------
 S
               1        2.000     -0.36174983887360E+00        -9.844               0.00E+00
 P
               1        2.000     -0.29524785341678E-01        -0.803               0.00E+00


 Partially Occupied:
               1 P                -0.29524785341678E-01
  
 HOMO :        1 S                -0.36174983887360E+00
  


 Orbital Energies, all Irreps
 ========================================

 Irrep        no.  (spin)   Occup              E (au)                E (eV)
 ---------------------------------------------------------------------------
 S             1             2.00       -0.36174983887360E+00        -9.8437
 P             1             2.00       -0.29524785341678E-01        -0.8034


 Orbital Energies of the Core Orbitals:
 ======================================
 (Note that the atoms are grouped by atomtype, see the labels, and may hence NOT be in input order)

 AtomType  Orbital  Atom                   E (au)                        E (eV)
 --------  -------  ----           --------------------        ----------------
 C           1S        1          -0.96708331272838E+01                -263.157



 =======================================
 M U L L I K E N   P O P U L A T I O N S
 =======================================
  
 The survey below gives for each atom:
 a) the total charge (Z minus electrons)
 b) the net spin polarization (nr of electrons spin-A minus spin-B)
 c) for each spin the atomic electron valence density (integrated) per L-value.

 Atom              Charge    Spin density          S         P         D         F
 ----              ------    ------------       ------    ------    ------    ------
 1 C               0.0000                       2.0000    2.0000    0.0000    0.0000

 Populations of individual BAS functions
 ----------------------------------------
 1 C            0.0111  1.9889  0.6667  0.6667  0.6667

 Gross Charges per Atom (Z minus electrons)
 ==========================================
             0.0000
 Net Total:  0.00000000



 =======================================================================
 Electrostatic potential at the Nuclei due to electrons and other nuclei
 =======================================================================
  
         Atom                  Potential
         ----                  ---------
     1)   C                  14.93574616
 
 
 ========================
 No memory problems found
 ========================
 
 Maximum number of active allocate calls:         311
 
 *******************************************************************************

                             A D F   E X I T
 NORMAL TERMINATION



 =================
 Timing Statistics
 =================
  
 Total Used :                     CPU=        0.32      System=        0.05     Elapsed=        0.50

 Calls  Section                     ( Mean, Percentage )
 ---------------------------------------------------------------------------------------------------
     3  ><      ................      0.00    0.74             0.00    3.89             0.00    1.72
     1  INIT    ................      0.08   24.46             0.00    6.21             0.11   21.38
     1  GEOMET  ................      0.02    6.81             0.01   20.08             0.06   12.07
     1  INPUTA  ................      0.00    0.66             0.00    3.97             0.00    0.84
     1  MAINSY  ................      0.01    2.65             0.01   13.01             0.03    5.19
     1  SYMFIT  ................      0.00    0.26             0.00    1.93             0.00    0.38
     1  CORORT  ................      0.00    0.07             0.00    2.37             0.00    0.70
     1  SYMORB  ................      0.00    0.16             0.00    1.52             0.00    0.34
     1  CLSMAT  ................      0.01    1.67             0.00    3.23             0.01    1.85
     1  ORTHON  ................      0.01    1.60             0.00    0.16             0.01    1.51
     1  GENPT   ................      0.01    3.57             0.00    4.28             0.02    3.58
     1  PTBAS   ................      0.00    1.54             0.00    2.23             0.01    1.76
     3  FOCKY   ................      0.04   40.87             0.00   26.54             0.06   33.89
     3  FOCKTR  ................      0.00    0.56             0.00    0.24             0.00    0.40
     3  SDIIS   ................      0.00    3.09             0.00    0.17             0.01    3.46
     1  COREPS  ................      0.02    5.07             0.00    4.27             0.02    3.86
     1  POPAN   ................      0.01    1.62             0.00    0.00             0.01    1.38
     1  DEBYE   ................      0.00    0.58             0.00    0.00             0.00    0.77
     1  EXIT PROCEDURE .........      0.01    4.03             0.00    5.91             0.02    4.93


 Currently Open Files (EXIT00)
 ====================

 Unit    Access Format  Status   Type       Ident (file)
 -------------------------------------------------------
   3      SEQ    FORM   TRANSP  NORMAL      LOGFILE
                                          ( logfile )

 ***************************************************************************************************
 (LOGFILE)
 <Mar13-2020> <16:58:09>  ADF 2019.302  RunTime: Mar13-2020 16:58:09  Nodes: 1  Procs: 1
 <Mar13-2020> <16:58:09>  Hydrogen (SZ)
 <Mar13-2020> <16:58:09>  RunType   : CREATE
 <Mar13-2020> <16:58:09>  Net Charge: 0 (Nuclei minus Electrons)
 <Mar13-2020> <16:58:09>  Symmetry  : ATOM
  Coordinates
    Atom         X           Y           Z   (Angstrom)
    1.H         0.000000    0.000000    0.000000
 <Mar13-2020> <16:58:09>  >>>> CORORT
 <Mar13-2020> <16:58:09>  >>>> CLSMAT
 <Mar13-2020> <16:58:09>  >>>> ORTHON
 <Mar13-2020> <16:58:09>  >>>> GENPT
 <Mar13-2020> <16:58:09>  Block Length=  64
 <Mar13-2020> <16:58:09>  >>>> PTBAS
 <Mar13-2020> <16:58:09>  >>>> CYCLE
 <Mar13-2020> <16:58:09>              |Error|         MaxErr       Wt(A-DIIS)
 <Mar13-2020> <16:58:09>      1      0.00000000      0.00000000
 <Mar13-2020> <16:58:09>      2      0.00000000      0.00000000
 <Mar13-2020> <16:58:09>  SCF converged
 <Mar13-2020> <16:58:09>      3      0.00000000      0.00000000    100.0
 <Mar13-2020> <16:58:09>  >>>> POPAN
 <Mar13-2020> <16:58:09>  >>>> DEBYE
 <Mar13-2020> <16:58:09>  NORMAL TERMINATION
 <Mar13-2020> <16:58:09>  END
 <Mar13-2020> <16:58:10>  ADF 2019.302  RunTime: Mar13-2020 16:58:10  Nodes: 1  Procs: 1
 <Mar13-2020> <16:58:10>  Nitrogen (SZ, 1s frozen)
 <Mar13-2020> <16:58:10>  RunType   : CREATE
 <Mar13-2020> <16:58:10>  Net Charge: 0 (Nuclei minus Electrons)
 <Mar13-2020> <16:58:10>  Symmetry  : ATOM
  Coordinates
    Atom         X           Y           Z   (Angstrom)
    1.N         0.000000    0.000000    0.000000
 <Mar13-2020> <16:58:10>  >>>> CORORT
 <Mar13-2020> <16:58:10>  >>>> CLSMAT
 <Mar13-2020> <16:58:10>  >>>> ORTHON
 <Mar13-2020> <16:58:10>  >>>> GENPT
 <Mar13-2020> <16:58:10>  Block Length=  68
 <Mar13-2020> <16:58:10>  >>>> PTBAS
 <Mar13-2020> <16:58:10>  >>>> CYCLE
 <Mar13-2020> <16:58:10>              |Error|         MaxErr       Wt(A-DIIS)
 <Mar13-2020> <16:58:10>      1      0.00000000      0.00000000
 <Mar13-2020> <16:58:10>      2      0.00000000      0.00000000
 <Mar13-2020> <16:58:10>  SCF converged
 <Mar13-2020> <16:58:10>      3      0.00000000      0.00000000    100.0
 <Mar13-2020> <16:58:10>  >>>> POPAN
 <Mar13-2020> <16:58:10>  >>>> DEBYE
 <Mar13-2020> <16:58:10>  NORMAL TERMINATION
 <Mar13-2020> <16:58:10>  END
 <Mar13-2020> <16:58:10>  ADF 2019.302  RunTime: Mar13-2020 16:58:10  Nodes: 1  Procs: 1
 <Mar13-2020> <16:58:10>  Carbon (SZ, 1s frozen)
 <Mar13-2020> <16:58:10>  RunType   : CREATE
 <Mar13-2020> <16:58:10>  Net Charge: 0 (Nuclei minus Electrons)
 <Mar13-2020> <16:58:10>  Symmetry  : ATOM
  Coordinates
    Atom         X           Y           Z   (Angstrom)
    1.C         0.000000    0.000000    0.000000
 <Mar13-2020> <16:58:10>  >>>> CORORT
 <Mar13-2020> <16:58:10>  >>>> CLSMAT
 <Mar13-2020> <16:58:10>  >>>> ORTHON
 <Mar13-2020> <16:58:10>  >>>> GENPT
 <Mar13-2020> <16:58:10>  Block Length=  68
 <Mar13-2020> <16:58:10>  >>>> PTBAS
 <Mar13-2020> <16:58:10>  >>>> CYCLE
 <Mar13-2020> <16:58:11>              |Error|         MaxErr       Wt(A-DIIS)
 <Mar13-2020> <16:58:11>      1      0.00000000      0.00000000
 <Mar13-2020> <16:58:11>      2      0.00000000      0.00000000
 <Mar13-2020> <16:58:11>  SCF converged
 <Mar13-2020> <16:58:11>      3      0.00000000      0.00000000    100.0
 <Mar13-2020> <16:58:11>  >>>> POPAN
 <Mar13-2020> <16:58:11>  >>>> DEBYE
 <Mar13-2020> <16:58:11>  NORMAL TERMINATION
 <Mar13-2020> <16:58:11>  END


 Parallel Execution: Process Information
 ==============================================================================
 Rank   Node Name                              NodeID   MyNodeRank  NodeMaster
    0   tcn546.bullx                              0          0          0
 ==============================================================================


 
atoms
      1         C      2.366998      0.579794     -0.000000
      2         C      1.660642      1.834189      0.000000
      3         N      1.089031      2.847969      0.000000
      4         H      2.100157      0.010030      0.887206
      5         H      2.100157      0.010030     -0.887206
      6         H      3.439065      0.764079     -0.000000
end

geometry
  optim delocal
end

numericalquality good

scf
  converge 1e-6
  iterations 100
end

xc
  lda
end

Fragments
H t21.H
N t21.N
C t21.C
End

 *******************************************************************************
 *                                                                             *
 *  --------------------------------                                           *
 *   Amsterdam Modeling Suite (AMS)              2019.302                      *
 *  --------------------------------                                           *
 *                                               r80089 2019-12-11             *
 *                                                                             *
 *                                                                             *
 *                              =================                              *
 *                              |               |                              *
 *                              |     A D F     |                              *
 *                              |               |                              *
 *                              =================                              *
 *                                                                             *
 *                                                                             *
 *   Online information and documentation:  https://www.scm.com/support/       *
 *   E-mail:  support@scm.com   info@scm.com                                   *
 *                                                                             *
 *   Scientific publications using AMS results must be properly referenced     *
 *   See the User Manuals (or the web site) for recommended citations          *
 *   The terms and conditions of the End User License Agreement apply to       *
 *   the use of AMS, https://www.scm.com/license-terms/                        *
 *                                                                             *
 **********************  x86_64_linux_intel / intelmpi  ************************
 
 Licensed to: SURF-SARA, Comp. & Networking Services / Amsterdam / NL
 SCM User ID: u7409
  
 ADF 2019.302  RunTime: Mar13-2020 16:58:11  Nodes: 1  Procs: 1

 Temporary files are created in /scratch/shared/fza900/adftmp/kid_0.1679066769 (0xBD00BD0)

 *** (NO TITLE) ***



 ===========================
 A T T A C H E D   F I L E S
 ===========================
  



 ===============================
 M O D E L   P A R A M E T E R S
 ===============================
  
 DENSITY FUNCTIONAL POTENTIAL (scf)
    LDA:                               VWN                                      
    Gradient Corrections:              ---                                      

 SPIN  (restricted / unrestr.)
    Molecule:                          Restricted                               
    Fragments:                         Restricted                               

 OTHER ASPECTS
    Relativistic Corrections:          ---                                      

    Nuclear Charge Density Model:      Point Charge Nuclei                      
    Core Treatment:                    Frozen Orbital(s)                        

    Hyperfine or Zeeman Interaction:   ---                                      


 Fragment File(s)
 ----------------
 C:
         file : t21.C
         jobid: ADF 2019.302  RunTime: Mar13-2020 16:58:10  Nodes: 1  Procs: 1
         title: Carbon (SZ, 1s frozen)
 N:
         file : t21.N
         jobid: ADF 2019.302  RunTime: Mar13-2020 16:58:10  Nodes: 1  Procs: 1
         title: Nitrogen (SZ, 1s frozen)
 H:
         file : t21.H
         jobid: ADF 2019.302  RunTime: Mar13-2020 16:58:09  Nodes: 1  Procs: 1
         title: Hydrogen (SZ)



                                   *********************************************
                                   *  R U N   T Y P E : GEOMETRY OPTIMIZATION  *
                                   *********************************************
  



 ===============
 G E O M E T R Y  ***  3D  Molecule  ***
 ===============
  

 ATOMS
 =====                            X Y Z                    CHARGE
                                (Angstrom)             Nucl     +Core       At.Mass
                       --------------------------    ----------------       -------
    1  C               0.0000    0.0000    0.6565      6.00      4.00       12.0000
    2  C               0.0000    0.0000   -0.7831      6.00      4.00       12.0000
    3  N               0.0000    0.0000   -1.9469      7.00      5.00       14.0031
    4  H              -1.0244    0.0000    1.0220      1.00      1.00        1.0078
    5  H               0.5122   -0.8872    1.0220      1.00      1.00        1.0078
    6  H               0.5122    0.8872    1.0220      1.00      1.00        1.0078


 FRAGMENTS
 =========                                     Atoms in this Fragment     Cart. coord.s (Angstrom)
                                               -------------------------------------------------------
    1  C                                                 1  C            0.0000    0.0000    0.6565
    2  C                                                 2  C            0.0000    0.0000   -0.7831
    3  N                                                 3  N            0.0000    0.0000   -1.9469
    4  H                                                 4  H           -1.0244    0.0000    1.0220
    5  H                                                 5  H            0.5122   -0.8872    1.0220
    6  H                                                 6  H            0.5122    0.8872    1.0220


 Interatomic Distance Matrix (Angstrom)
 --------------------------------------

   1)     0.000
   2)     1.440   0.000
   3)     2.603   1.164   0.000
   4)     1.088   2.076   3.141   0.000
   5)     1.088   2.076   3.141   1.774   0.000
   6)     1.088   2.076   3.141   1.774   1.774   0.000

 Min. Distance =    1.0877
 Max. Distance =    3.1407



 =====================================
 S Y M M E T R Y ,   E L E C T R O N S
 =====================================
  
 Symmetry: C(3V)

 Irreducible Representations, including subspecies
 -------------------------------------------------
 A1
 A2
 E1:1  E1:2


 Configuration of Valence Electrons
 ==================================
 ( determined in the SCF procedure )

 Total:   16

 Net Charge: 0 (Nuclei minus Electrons)

 Aufbau principle for MO occupations will be applied through SCF cycle no.      50
 Thereafter, the program will assign electrons to MOs that are spatially
 similar to the occupied MOs in a "reference" cycle ("KeepOrbitals").
 The reference cycle is always the PREVIOUS cycle: it will evolve with
 the SCF procedure.
1
 ***************************************************************************************************



                                      ****************************************
                                      *  B U I L D : (Fragments, Functions)  *
                                      ****************************************
  

 Total nr. of (C)SFOs (summation over all irreps) :    15

 Specify PRINT SFO in the input file to get a full list

 Nr. of SFOs for ir.rep.          A1 :     7
 Nr. of SFOs for ir.rep.        E1:1 :     4
 Nr. of SFOs for ir.rep.        E1:2 :     4



 ================================
 (Slater-type)  F U N C T I O N S  ***  (Basis and Fit)  ***
 ================================
  

 Atom Type    1  (C)
 ==============

 Valence Basis Sets:   3
 -----------------------
   1 S    5.670000
   2 S    1.720000
   2 P    1.720000

 Frozen Core Shells
 ------------------
    S:  1

 Atom Type    2  (N)
 ==============

 Valence Basis Sets:   3
 -----------------------
   1 S    6.670000
   2 S    1.950000
   2 P    1.950000

 Frozen Core Shells
 ------------------
    S:  1

 Atom Type    3  (H)
 ==============

 Valence Basis Sets:   1
 -----------------------
   1 S    1.240000


 BAS: List of all Elementary Cartesian Basis Functions
 =====================================================

 The numbering in the list below (to the right of the function characteristics) is referred
 to in print-outs of MO eigenvectors and Mulliken populations in the BAS representation
 (as contrasted to the SFO representation).

 Notes:
 1. The functions are characterized by a polynomial prefactor (powers of x,y,z and r) and
    an exponential decay factor alpha.
 2. Since the basis sets are specific for an atom TYPE, the individual functions occur on
    all atoms of that type.
 3. The word 'Core' in the left margin signals that it is a Core Function (CF) : not a
    degree of freedom in the valence set, but only used to ensure orthogonalization of
    the other valence basis functions on the frozen Core Orbitals.


 (power of) X  Y  Z  R     Alpha  on Atom
            ==========     =====     ==========

 C                                    1    2
                                  ---------------------------------------------------------------------------
    Core    0  0  0  0     5.670      1    6
            0  0  0  1     1.720      2    7
            1  0  0  0     1.720      3    8
            0  1  0  0     1.720      4    9
            0  0  1  0     1.720      5   10

 N                                    3
                                  ---------------------------------------------------------------------------
    Core    0  0  0  0     6.670     11
            0  0  0  1     1.950     12
            1  0  0  0     1.950     13
            0  1  0  0     1.950     14
            0  0  1  0     1.950     15

 H                                    4    5    6
                                  ---------------------------------------------------------------------------
            0  0  0  0     1.240     16   17   18

 Total number of charge fitting functions (nprimf)       402
 Total number of Cartesian basis functions (naos)         18
 Total number of Cartesian core functions  (ncos)          3

Bad geometry: could not add a dihedral for atom    3
Bad geometry: could not add a dihedral for atom    4
Bad geometry: could not add a dihedral for atom    5
Bad geometry: could not add a dihedral for atom    6


 Coordinates (Cartesian)
 =======================

     Atom                    bohr                                 angstrom                 Geometric Variables
                   X           Y           Z              X           Y           Z       (0:frozen, *:LT par.)
 --------------------------------------------------------------------------------------------------------------
     1 C       0.000000    0.000000    1.240625       0.000000    0.000000    0.656511      1       2       3
     2 C       0.000000    0.000000   -1.479823       0.000000    0.000000   -0.783088      4       5       6
     3 N       0.000000    0.000000   -3.679133       0.000000    0.000000   -1.946913      7       8       9
     4 H      -1.935915    0.000000    1.931330      -1.024442    0.000000    1.022016     10      11      12
     5 H       0.967958   -1.676552    1.931330       0.512221   -0.887193    1.022016     13      14      15
     6 H       0.967958    1.676552    1.931330       0.512221    0.887193    1.022016     16      17      18
 --------------------------------------------------------------------------------------------------------------
1
 ***************************************************************************************************



                                              ***********************
                                              *  T E C H N I C A L  *
                                              ***********************
  



 =============================================================
 P A R A L L E L I Z A T I O N  and  V E C T O R I Z A T I O N
 =============================================================
  
 Nr of parallel processes:                                1
 Maximum vector length in NumInt loops:                 128



 ===============================
 G E O M E T R Y   U P D A T E S
 ===============================
  
 Optimization coordinates:                       Delocalized
 Optimization code branch:                       NEW
 Hessian update method:                          BFGS (Broyden-Fletcher-Goldfarb-Shanno)

 Iterative Geometry Improvements:
    Max. nr. of iterations:                         36
    Convergence criteria:
         Change in energy (hartree):                 0.0010000000
         Gradients (au/Angstrom):                    0.0010000000
         Cart/bondlength changes (Angstrom):         0.0100000000
    Max. step to take:
         Trust Radius:                               0.2000000000

 GDIIS (Geometry Direct Inversion in Iteration Space):
    First geometry cycle:                            0
    Max. number expansion vectors:                   5



 =====================
 S C F   U P D A T E S
 =====================
  
 Max. nr. of cycles:                               100
 Convergence criterion:                              0.0000010000
   secondary criterion:                              0.0010000000

 Mix parameter (when DIIS does not apply):           0.2000000000
 Mixed ADIIS+SDIIS will be used                  
    Max number of expansion vectors:                10
    Pure ADIIS when Max([F,P]) is above              0.1000000000
    Pure SDIIS when Max([F,P]) is below              0.0010000000



 =================
 P R E C I S I O N  ***  (General: NumInt, NeglectFunctionTails, ...)  ***
 =================
  

 NumInt:           Target precision:                 6.0000000000
 -------           Initial precision:                6.0000000000
                   Min. precision (optimization):    6.0000000000

 Neglect Functions:          Basis functions:        0.1000000000E-07
 ------------------          Fit functions:          0.1000000000E-07



 ===========================
 L I N E A R   S C A L I N G
 ===========================
  

 Cut-off radii density fit:                        0.1000000000E-09
 Overlap cut-off criterion AO matrix elements:     0.1000000000E-07
 Cut-offs for Coulomb potential and fitted density:0.1000000000E-09
 Cut-off criterion for Coulomb multipole terms:    0.1000000000E-09
 Progressive Convergence parameter:                 0.000000000    
1
 ***************************************************************************************************



                                            ***************************
                                            *  C O M P U T A T I O N  *
                                            ***************************
  

 Number of elements of the density matrix on this node (used, total):       137       171



 ===========================================
 Numerical Integration : Fuzzy Cells (Becke)
 ===========================================
  
 Becke grid quality: GOOD           
  
 Lebedev angular grid order:             min:  11 max:  31
 Nr. of radial points:                   min:  54 max:  58

 Total nr. of points:      31812
 Nr. of blocks:              249
 Block length:               128
 Nr. of dummy points:         60


 Test of Precision of the Numerical Integration Grid
 ===================================================

 Integral of the Total Core Density:                   6.00002731449168
 Relative Error:                                       4.552E-06



 ========================
 Density Fitting (zlmFit)
 ========================
  
 ZlmFit Fit Quality: GOOD           
  
 Max L-expansion:                        min:   6 max:   7
 Nr. of radial interpolation points:     min:  72 max:  90



 =====
 S C F  ***  ScaSCF  ***
 =====
  
 Initial density matrix is calculated as sum of fragments

 CYCLE    1
 SCF Error: norm([F,P])=      0.404818624773, max([F,P])=      0.217594306907
 orbitals (Q,E):
 ---------------
 A1 :1...7           ( 2.00    -0.7928)  ( 2.00    -0.6346)  ( 2.00    -0.3933)  ( 2.00    -0.2953)
                     ( 0.00     0.3196)  ( 0.00     0.4306)  ( 0.00     0.8966)
 E1 :1...4           ( 4.00    -0.3528)  ( 4.00    -0.2485)  ( 0.00     0.0878)  ( 0.00     0.4194)

 CYCLE    2
  SDIIS (wt  0.000):  0.6353  0.3647
 A-DIIS (wt  1.000):  0.0000  1.0000
  DIIS coefficients:  0.0000  1.0000
 SCF Error: norm([F,P])=      0.526689173495, max([F,P])=      0.311772623360
 orbitals (Q,E):
 ---------------
 A1 :1...5           ( 2.00    -0.7927)  ( 2.00    -0.7063)  ( 2.00    -0.4977)  ( 2.00    -0.0734)
                     ( 0.00     0.2210)
 E1 :1...3           ( 4.00    -0.4479)  ( 4.00    -0.2436)  ( 0.00     0.1565)

 CYCLE    3
  SDIIS (wt  0.000):  0.0072  0.7437  0.2491
 A-DIIS (wt  1.000):  0.0000  0.8329  0.1671
  DIIS coefficients:  0.0000  0.8329  0.1671
 SCF Error: norm([F,P])=      1.555079262168, max([F,P])=      0.842914760581
 orbitals (Q,E):
 ---------------
 A1 :1...5           ( 2.00    -0.7784)  ( 2.00    -0.6872)  ( 2.00    -0.4443)  ( 2.00    -0.1669)
                     ( 0.00     0.2698)
 E1 :1...3           ( 4.00    -0.4041)  ( 4.00    -0.2272)  ( 0.00     0.1085)

 CYCLE    4
  SDIIS (wt  0.000):  0.4779 -0.0641  0.5861
 A-DIIS (wt  1.000):  0.5284  0.0000  0.4716
  DIIS coefficients:  0.5284  0.0000  0.4716
 SCF Error: norm([F,P])=      0.596903806293, max([F,P])=      0.348677580174
 orbitals (Q,E):
 ---------------
 A1 :1...5           ( 2.00    -0.7898)  ( 2.00    -0.6708)  ( 2.00    -0.4229)  ( 2.00    -0.2125)
                     ( 0.00     0.2873)
 E1 :1...3           ( 4.00    -0.3867)  ( 4.00    -0.2350)  ( 0.00     0.0942)

 CYCLE    5
  SDIIS (wt  0.939):  0.1081 -0.0105  0.1067  0.7957
 A-DIIS (wt  0.061):  0.0000  0.0000  0.0000  1.0000
  DIIS coefficients:  0.1015 -0.0099  0.1002  0.8082
 SCF Error: norm([F,P])=      0.013877073233, max([F,P])=      0.007038827929
 orbitals (Q,E):
 ---------------
 A1 :1...5           ( 2.00    -0.7921)  ( 2.00    -0.6700)  ( 2.00    -0.4230)  ( 2.00    -0.2181)
                     ( 0.00     0.2859)
 E1 :1...3           ( 4.00    -0.3851)  ( 4.00    -0.2379)  ( 0.00     0.0903)

 CYCLE    6
  SDIIS (wt  0.976):  0.0218 -0.0011  0.0100  0.2952  0.6743
 A-DIIS (wt  0.024):  0.0000  0.0000  0.0000  0.0000  1.0000
  DIIS coefficients:  0.0212 -0.0011  0.0097  0.2882  0.6819
 SCF Error: norm([F,P])=      0.006357759817, max([F,P])=      0.003328960027
 orbitals (Q,E):
 ---------------
 A1 :1...5           ( 2.00    -0.7912)  ( 2.00    -0.6703)  ( 2.00    -0.4231)  ( 2.00    -0.2180)
                     ( 0.00     0.2861)
 E1 :1...3           ( 4.00    -0.3855)  ( 4.00    -0.2374)  ( 0.00     0.0909)

 CYCLE    7
  SDIIS (wt  1.000):  0.0077 -0.0007  0.0028  0.0969  0.2950  0.5983
  DIIS coefficients:  0.0077 -0.0007  0.0028  0.0969  0.2950  0.5983
 SCF Error: norm([F,P])=      0.001216312669, max([F,P])=      0.000564560045
 orbitals (Q,E):
 ---------------
 A1 :1...5           ( 2.00    -0.7912)  ( 2.00    -0.6701)  ( 2.00    -0.4230)  ( 2.00    -0.2180)
                     ( 0.00     0.2862)
 E1 :1...3           ( 4.00    -0.3854)  ( 4.00    -0.2373)  ( 0.00     0.0909)

 CYCLE    8
  SDIIS (wt  1.000):  0.0004  0.0001 -0.0015  0.0051  0.0274  0.1169  0.8516
  DIIS coefficients:  0.0004  0.0001 -0.0015  0.0051  0.0274  0.1169  0.8516
 SCF Error: norm([F,P])=      0.000747013217, max([F,P])=      0.000440918958
 orbitals (Q,E):
 ---------------
 A1 :1...5           ( 2.00    -0.7912)  ( 2.00    -0.6701)  ( 2.00    -0.4230)  ( 2.00    -0.2181)
                     ( 0.00     0.2862)
 E1 :1...3           ( 4.00    -0.3854)  ( 4.00    -0.2374)  ( 0.00     0.0909)

 CYCLE    9
  SDIIS (wt  1.000):  0.0000  0.0000 -0.0001  0.0005  0.0013  0.0052  0.0352  0.9578
  DIIS coefficients:  0.0000  0.0000 -0.0001  0.0005  0.0013  0.0052  0.0352  0.9578
 SCF Error: norm([F,P])=      0.000001433501, max([F,P])=      0.000000810582
 orbitals (Q,E):
 ---------------
 A1 :1...5           ( 2.00    -0.7912)  ( 2.00    -0.6701)  ( 2.00    -0.4230)  ( 2.00    -0.2181)
                     ( 0.00     0.2862)
 E1 :1...3           ( 4.00    -0.3854)  ( 4.00    -0.2374)  ( 0.00     0.0909)

 SCF CONVERGED

 CYCLE   10
 *** Using FIT density in Focky
  SDIIS (wt  1.000):  0.0000  0.0000 -0.0000  0.0000  0.0001  0.0003  0.0017  0.0730  0.9249
  DIIS coefficients:  0.0000  0.0000 -0.0000  0.0000  0.0001  0.0003  0.0017  0.0730  0.9249
 SCF Error: norm([F,P])=      0.000001099568, max([F,P])=      0.000000645348
 orbitals (Q,E):
 ---------------
 A1 :1...7           ( 2.00    -0.7912)  ( 2.00    -0.6701)  ( 2.00    -0.4230)  ( 2.00    -0.2181)
                     ( 0.00     0.2862)  ( 0.00     0.3925)  ( 0.00     0.8784)
 E1 :1...4           ( 4.00    -0.3854)  ( 4.00    -0.2374)  ( 0.00     0.0909)  ( 0.00     0.3801)


 Fit test: (difference of exact and fit density, squared integrated, result summed over spins)
         SCF:                                          0.00009262123641

 Gross Charges per Atom (Z minus electrons)
 ==========================================
            -0.3126    0.0815   -0.1997    0.1436    0.1436    0.1436
 Net Total: -0.00000000



 =================================================================
 M U L T I P O L E   D E R I V E D   C H A R G E   A N A L Y S I S
 =================================================================

 See: M. Swart, P.Th. van Duijnen, J.G. Snijders, J.Comput.Chem., (2001), p. 79-88.

 --------------------------------------- 
 Multipole derived atomic charges (a.u.)
 --------------------------------------- 

        Atom    Level:     MDC-m        MDC-d        MDC-q
[...]
 <Mar13-2020> <16:58:10>  Nitrogen (SZ, 1s frozen)
 <Mar13-2020> <16:58:10>  RunType   : CREATE
 <Mar13-2020> <16:58:10>  Net Charge: 0 (Nuclei minus Electrons)
 <Mar13-2020> <16:58:10>  Symmetry  : ATOM
  Coordinates
    Atom         X           Y           Z   (Angstrom)
    1.N         0.000000    0.000000    0.000000
 <Mar13-2020> <16:58:10>  >>>> CORORT
 <Mar13-2020> <16:58:10>  >>>> CLSMAT
 <Mar13-2020> <16:58:10>  >>>> ORTHON
 <Mar13-2020> <16:58:10>  >>>> GENPT
 <Mar13-2020> <16:58:10>  Block Length=  68
 <Mar13-2020> <16:58:10>  >>>> PTBAS
 <Mar13-2020> <16:58:10>  >>>> CYCLE
 <Mar13-2020> <16:58:10>              |Error|         MaxErr       Wt(A-DIIS)
 <Mar13-2020> <16:58:10>      1      0.00000000      0.00000000
 <Mar13-2020> <16:58:10>      2      0.00000000      0.00000000
 <Mar13-2020> <16:58:10>  SCF converged
 <Mar13-2020> <16:58:10>      3      0.00000000      0.00000000    100.0
 <Mar13-2020> <16:58:10>  >>>> POPAN
 <Mar13-2020> <16:58:10>  >>>> DEBYE
 <Mar13-2020> <16:58:10>  NORMAL TERMINATION
 <Mar13-2020> <16:58:10>  END
 <Mar13-2020> <16:58:10>  ADF 2019.302  RunTime: Mar13-2020 16:58:10  Nodes: 1  Procs: 1
 <Mar13-2020> <16:58:10>  Carbon (SZ, 1s frozen)
 <Mar13-2020> <16:58:10>  RunType   : CREATE
 <Mar13-2020> <16:58:10>  Net Charge: 0 (Nuclei minus Electrons)
 <Mar13-2020> <16:58:10>  Symmetry  : ATOM
  Coordinates
    Atom         X           Y           Z   (Angstrom)
    1.C         0.000000    0.000000    0.000000
 <Mar13-2020> <16:58:10>  >>>> CORORT
 <Mar13-2020> <16:58:10>  >>>> CLSMAT
 <Mar13-2020> <16:58:10>  >>>> ORTHON
 <Mar13-2020> <16:58:10>  >>>> GENPT
 <Mar13-2020> <16:58:10>  Block Length=  68
 <Mar13-2020> <16:58:10>  >>>> PTBAS
 <Mar13-2020> <16:58:10>  >>>> CYCLE
 <Mar13-2020> <16:58:11>              |Error|         MaxErr       Wt(A-DIIS)
 <Mar13-2020> <16:58:11>      1      0.00000000      0.00000000
 <Mar13-2020> <16:58:11>      2      0.00000000      0.00000000
 <Mar13-2020> <16:58:11>  SCF converged
 <Mar13-2020> <16:58:11>      3      0.00000000      0.00000000    100.0
 <Mar13-2020> <16:58:11>  >>>> POPAN
 <Mar13-2020> <16:58:11>  >>>> DEBYE
 <Mar13-2020> <16:58:11>  NORMAL TERMINATION
 <Mar13-2020> <16:58:11>  END
 <Mar13-2020> <16:58:11>  ADF 2019.302  RunTime: Mar13-2020 16:58:11  Nodes: 1  Procs: 1
 <Mar13-2020> <16:58:11>  *** (NO TITLE) ***
 <Mar13-2020> <16:58:11>  RunType   : GEOMETRY OPTIMIZATION
 <Mar13-2020> <16:58:11>  Net Charge: 0 (Nuclei minus Electrons)
 <Mar13-2020> <16:58:11>  Symmetry  : C(3V)
 <Mar13-2020> <16:58:11>  >>>> FRAGM
  Coordinates in Geometry Cycle 1
    Atom         X           Y           Z   (Angstrom)
    1.C         0.000000    0.000000    0.656511
    2.C         0.000000    0.000000   -0.783088
    3.N         0.000000    0.000000   -1.946913
    4.H        -1.024442    0.000000    1.022016
    5.H         0.512221   -0.887193    1.022016
    6.H         0.512221    0.887193    1.022016
 <Mar13-2020> <16:58:12>  >>>> CORORT
 <Mar13-2020> <16:58:12>  >>>> CLSMAT
 <Mar13-2020> <16:58:12>  >>>> ORTHON
 <Mar13-2020> <16:58:12>  >>>> GENPT
 <Mar13-2020> <16:58:12>  Block Length= 128
 <Mar13-2020> <16:58:12>  >>>> PTBAS
 <Mar13-2020> <16:58:12>  >>>> CYCLE
 <Mar13-2020> <16:58:13>              |Error|         MaxErr       Wt(A-DIIS)
 <Mar13-2020> <16:58:13>      1      0.40481862      0.21759431
 <Mar13-2020> <16:58:13>      2      0.52668917      0.31177262    100.0
 <Mar13-2020> <16:58:13>      3      1.55507926      0.84291476    100.0
 <Mar13-2020> <16:58:14>      4      0.59690381      0.34867758    100.0
 <Mar13-2020> <16:58:14>      5      0.01387707      0.00703883      6.1
 <Mar13-2020> <16:58:14>      6      0.00635776      0.00332896      2.4
 <Mar13-2020> <16:58:15>      7      0.00121631      0.00056456      0.0
 <Mar13-2020> <16:58:15>      8      0.00074701      0.00044092      0.0
 <Mar13-2020> <16:58:15>      9      0.00000143      0.00000081      0.0
 <Mar13-2020> <16:58:15>  SCF converged
 <Mar13-2020> <16:58:16>     10      0.00000110      0.00000065      0.0
 <Mar13-2020> <16:58:16>  >>>> TOTEN
 <Mar13-2020> <16:58:17>  >>>> POPAN
 <Mar13-2020> <16:58:17>  >>>> DEBYE
 <Mar13-2020> <16:58:17>  >>>> ENGRAD
 <Mar13-2020> <16:58:17>  current energy                               -1.60936547 Hartree
 <Mar13-2020> <16:58:17>  energy change                      -1.60936547     0.00100000    F
 <Mar13-2020> <16:58:17>  constrained gradient max            0.19666473     0.00100000    F
 <Mar13-2020> <16:58:17>  constrained gradient rms            0.05799427     0.00066667    F
 <Mar13-2020> <16:58:17>  gradient max                        0.19666473
 <Mar13-2020> <16:58:17>  gradient rms                        0.05799427
 <Mar13-2020> <16:58:17>  cart. step max                      0.12387405     0.01000000    F
 <Mar13-2020> <16:58:17>  cart. step rms                      0.03408585     0.00666667    F
  Coordinates in Geometry Cycle 2
    Atom         X           Y           Z   (Angstrom)
    1.C         0.000000    0.000000    0.677892
    2.C         0.000000    0.000000   -0.798044
    3.N         0.000000    0.000000   -2.070788
    4.H        -1.034267    0.000000    1.061165
    5.H         0.517134   -0.895702    1.061165
    6.H         0.517134    0.895702    1.061165
 <Mar13-2020> <16:58:17>  >>>> CORORT
 <Mar13-2020> <16:58:17>  >>>> CLSMAT
 <Mar13-2020> <16:58:17>  >>>> ORTHON
 <Mar13-2020> <16:58:17>  >>>> GENPT
 <Mar13-2020> <16:58:17>  Block Length= 128
 <Mar13-2020> <16:58:18>  >>>> PTBAS
 <Mar13-2020> <16:58:18>  >>>> CYCLE
 <Mar13-2020> <16:58:18>              |Error|         MaxErr       Wt(A-DIIS)
 <Mar13-2020> <16:58:18>      1      0.09104836      0.05943708
 <Mar13-2020> <16:58:19>      2      0.17699963      0.09261401    100.0
 <Mar13-2020> <16:58:19>      3      0.68332235      0.39397141    100.0
 <Mar13-2020> <16:58:19>      4      0.24277174      0.14010158    100.0
 <Mar13-2020> <16:58:20>      5      0.02129234      0.01018767      9.3
 <Mar13-2020> <16:58:20>      6      0.00886257      0.00506645      4.1
 <Mar13-2020> <16:58:20>      7      0.00109199      0.00048644      0.0
 <Mar13-2020> <16:58:21>      8      0.00016455      0.00009647      0.0
 <Mar13-2020> <16:58:21>      9      0.00000108      0.00000061      0.0
 <Mar13-2020> <16:58:21>  SCF converged
 <Mar13-2020> <16:58:21>     10      0.00000023      0.00000014      0.0
 <Mar13-2020> <16:58:22>  >>>> TOTEN
 <Mar13-2020> <16:58:22>  >>>> POPAN
 <Mar13-2020> <16:58:22>  >>>> DEBYE
 <Mar13-2020> <16:58:22>  >>>> ENGRAD
 <Mar13-2020> <16:58:23>  current energy                               -1.60666776 Hartree
 <Mar13-2020> <16:58:23>  energy change                       0.00269772     0.00100000    F
 <Mar13-2020> <16:58:23>  constrained gradient max            0.23105768     0.00100000    F
 <Mar13-2020> <16:58:23>  constrained gradient rms            0.07658130     0.00066667    F
 <Mar13-2020> <16:58:23>  gradient max                        0.23105768
 <Mar13-2020> <16:58:23>  gradient rms                        0.07658130
 <Mar13-2020> <16:58:23>  cart. step max                      0.02436724     0.01000000    F
 <Mar13-2020> <16:58:23>  cart. step rms                      0.00629315     0.00666667    T
  Coordinates in Geometry Cycle 3
    Atom         X           Y           Z   (Angstrom)
    1.C         0.000000    0.000000    0.673110
    2.C         0.000000    0.000000   -0.803398
    3.N         0.000000    0.000000   -2.046420
    4.H        -1.034410    0.000000    1.056422
    5.H         0.517205   -0.895825    1.056422
    6.H         0.517205    0.895825    1.056422
 <Mar13-2020> <16:58:23>  >>>> CORORT
 <Mar13-2020> <16:58:23>  >>>> CLSMAT
 <Mar13-2020> <16:58:23>  >>>> ORTHON
 <Mar13-2020> <16:58:23>  >>>> GENPT
 <Mar13-2020> <16:58:23>  Block Length= 128
 <Mar13-2020> <16:58:23>  >>>> PTBAS
 <Mar13-2020> <16:58:23>  >>>> CYCLE
 <Mar13-2020> <16:58:24>              |Error|         MaxErr       Wt(A-DIIS)
 <Mar13-2020> <16:58:24>      1      0.02241295      0.01308299
 <Mar13-2020> <16:58:24>      2      0.02763228      0.01078852    100.0
 <Mar13-2020> <16:58:25>      3      0.01331221      0.00578328    100.0
 <Mar13-2020> <16:58:25>      4      0.00903010      0.00358048      2.6
 <Mar13-2020> <16:58:25>      5      0.00199940      0.00085172      0.0
 <Mar13-2020> <16:58:26>      6      0.00036098      0.00017757      0.0
 <Mar13-2020> <16:58:26>      7      0.00000946      0.00000550      0.0
 <Mar13-2020> <16:58:26>      8      0.00000018      0.00000009      0.0
 <Mar13-2020> <16:58:26>  SCF converged
 <Mar13-2020> <16:58:27>      9      0.00000002      0.00000001      0.0
 <Mar13-2020> <16:58:27>  >>>> TOTEN
 <Mar13-2020> <16:58:28>  >>>> POPAN
 <Mar13-2020> <16:58:28>  >>>> DEBYE
 <Mar13-2020> <16:58:28>  >>>> ENGRAD
 <Mar13-2020> <16:58:28>  current energy                               -1.61217001 Hartree
 <Mar13-2020> <16:58:28>  energy change                      -0.00550225     0.00100000    F
 <Mar13-2020> <16:58:28>  constrained gradient max            0.13982580     0.00100000    F
 <Mar13-2020> <16:58:28>  constrained gradient rms            0.04648318     0.00066667    F
 <Mar13-2020> <16:58:28>  gradient max                        0.13982580
 <Mar13-2020> <16:58:28>  gradient rms                        0.04648318
 <Mar13-2020> <16:58:28>  cart. step max                      0.04037108     0.01000000    F
 <Mar13-2020> <16:58:28>  cart. step rms                      0.01045459     0.00666667    F
  Coordinates in Geometry Cycle 4
    Atom         X           Y           Z   (Angstrom)
    1.C         0.000000    0.000000    0.666517
    2.C         0.000000    0.000000   -0.809336
    3.N         0.000000    0.000000   -2.006049
    4.H        -1.034804    0.000000    1.047142
    5.H         0.517402   -0.896166    1.047142
    6.H         0.517402    0.896166    1.047142
 <Mar13-2020> <16:58:28>  >>>> CORORT
 <Mar13-2020> <16:58:28>  >>>> CLSMAT
 <Mar13-2020> <16:58:28>  >>>> ORTHON
 <Mar13-2020> <16:58:28>  >>>> GENPT
 <Mar13-2020> <16:58:28>  Block Length= 128
 <Mar13-2020> <16:58:29>  >>>> PTBAS
 <Mar13-2020> <16:58:29>  >>>> CYCLE
 <Mar13-2020> <16:58:29>              |Error|         MaxErr       Wt(A-DIIS)
 <Mar13-2020> <16:58:29>      1      0.03599124      0.02263185
 <Mar13-2020> <16:58:30>      2      0.04515606      0.01945124    100.0
 <Mar13-2020> <16:58:30>      3      0.01987804      0.00888570    100.0
 <Mar13-2020> <16:58:30>      4      0.01141518      0.00615491      5.2
 <Mar13-2020> <16:58:30>      5      0.00244305      0.00099411      0.0
 <Mar13-2020> <16:58:31>      6      0.00054103      0.00027304      0.0
 <Mar13-2020> <16:58:31>      7      0.00001067      0.00000623      0.0
 <Mar13-2020> <16:58:31>      8      0.00000019      0.00000012      0.0
 <Mar13-2020> <16:58:32>  SCF converged
 <Mar13-2020> <16:58:32>      9      0.00000003      0.00000002      0.0
 <Mar13-2020> <16:58:32>  >>>> TOTEN
 <Mar13-2020> <16:58:33>  >>>> POPAN
 <Mar13-2020> <16:58:33>  >>>> DEBYE
 <Mar13-2020> <16:58:33>  >>>> ENGRAD
 <Mar13-2020> <16:58:33>  current energy                               -1.61468967 Hartree
 <Mar13-2020> <16:58:33>  energy change                      -0.00251966     0.00100000    F
 <Mar13-2020> <16:58:33>  constrained gradient max            0.03869264     0.00100000    F
 <Mar13-2020> <16:58:33>  constrained gradient rms            0.01285617     0.00066667    F
 <Mar13-2020> <16:58:33>  gradient max                        0.03869264
 <Mar13-2020> <16:58:33>  gradient rms                        0.01285617
 <Mar13-2020> <16:58:33>  cart. step max                      0.00919003     0.01000000    T
 <Mar13-2020> <16:58:33>  cart. step rms                      0.00237880     0.00666667    T
  Coordinates in Geometry Cycle 5
    Atom         X           Y           Z   (Angstrom)
    1.C         0.000000    0.000000    0.668318
    2.C         0.000000    0.000000   -0.808073
    3.N         0.000000    0.000000   -2.015239
    4.H        -1.034935    0.000000    1.049184
    5.H         0.517467   -0.896280    1.049184
    6.H         0.517467    0.896280    1.049184
 <Mar13-2020> <16:58:33>  >>>> CORORT
 <Mar13-2020> <16:58:33>  >>>> CLSMAT
 <Mar13-2020> <16:58:33>  >>>> ORTHON
 <Mar13-2020> <16:58:33>  >>>> GENPT
 <Mar13-2020> <16:58:33>  Block Length= 128
 <Mar13-2020> <16:58:34>  >>>> PTBAS
 <Mar13-2020> <16:58:34>  >>>> CYCLE
 <Mar13-2020> <16:58:34>              |Error|         MaxErr       Wt(A-DIIS)
 <Mar13-2020> <16:58:34>      1      0.00834482      0.00541951
 <Mar13-2020> <16:58:35>      2      0.01123421      0.00513362    100.0
 <Mar13-2020> <16:58:35>      3      0.03468786      0.02012022    100.0
 <Mar13-2020> <16:58:35>      4      0.00781435      0.00420802      3.2
 <Mar13-2020> <16:58:36>      5      0.00051243      0.00020410      0.0
 <Mar13-2020> <16:58:36>      6      0.00012299      0.00006202      0.0
 <Mar13-2020> <16:58:36>      7      0.00000215      0.00000124      0.0
 <Mar13-2020> <16:58:37>      8      0.00000006      0.00000003      0.0
 <Mar13-2020> <16:58:37>  SCF converged
 <Mar13-2020> <16:58:37>      9      0.00000001      0.00000001      0.0
 <Mar13-2020> <16:58:37>  >>>> TOTEN
 <Mar13-2020> <16:58:38>  >>>> POPAN
 <Mar13-2020> <16:58:38>  >>>> DEBYE
 <Mar13-2020> <16:58:38>  >>>> ENGRAD
 <Mar13-2020> <16:58:39>  current energy                               -1.61485883 Hartree
 <Mar13-2020> <16:58:39>  energy change                      -0.00016916     0.00100000    T
 <Mar13-2020> <16:58:39>  constrained gradient max            0.00602502     0.00100000    F
 <Mar13-2020> <16:58:39>  constrained gradient rms            0.00200655     0.00066667    F
 <Mar13-2020> <16:58:39>  gradient max                        0.00602502
 <Mar13-2020> <16:58:39>  gradient rms                        0.00200655
 <Mar13-2020> <16:58:39>  cart. step max                      0.00099889     0.01000000    T
 <Mar13-2020> <16:58:39>  cart. step rms                      0.00030291     0.00666667    T
  Coordinates in Geometry Cycle 6
    Atom         X           Y           Z   (Angstrom)
    1.C         0.000000    0.000000    0.668483
    2.C         0.000000    0.000000   -0.807927
    3.N         0.000000    0.000000   -2.014240
    4.H        -1.035041    0.000000    1.048747
    5.H         0.517520   -0.896372    1.048747
    6.H         0.517520    0.896372    1.048747
 <Mar13-2020> <16:58:39>  >>>> CORORT
 <Mar13-2020> <16:58:39>  >>>> CLSMAT
 <Mar13-2020> <16:58:39>  >>>> ORTHON
 <Mar13-2020> <16:58:39>  >>>> GENPT
 <Mar13-2020> <16:58:39>  Block Length= 128
 <Mar13-2020> <16:58:39>  >>>> PTBAS
 <Mar13-2020> <16:58:39>  >>>> CYCLE
 <Mar13-2020> <16:58:40>              |Error|         MaxErr       Wt(A-DIIS)
 <Mar13-2020> <16:58:40>      1      0.00066722      0.00042314
 <Mar13-2020> <16:58:40>      2      0.00088488      0.00043555    100.0
 <Mar13-2020> <16:58:40>      3      0.00030266      0.00012464    100.0
 <Mar13-2020> <16:58:41>      4      0.00014829      0.00007770      0.0
 <Mar13-2020> <16:58:41>      5      0.00002814      0.00001032      0.0
 <Mar13-2020> <16:58:41>      6      0.00000994      0.00000508      0.0
 <Mar13-2020> <16:58:42>      7      0.00000017      0.00000010      0.0
 <Mar13-2020> <16:58:42>  SCF converged
 <Mar13-2020> <16:58:42>      8      0.00000000      0.00000000      0.0
 <Mar13-2020> <16:58:42>  >>>> TOTEN
 <Mar13-2020> <16:58:43>  >>>> POPAN
 <Mar13-2020> <16:58:43>  >>>> DEBYE
 <Mar13-2020> <16:58:43>  >>>> ENGRAD
 <Mar13-2020> <16:58:44>  current energy                               -1.61486245 Hartree
 <Mar13-2020> <16:58:44>  energy change                      -0.00000362     0.00100000    T
 <Mar13-2020> <16:58:44>  constrained gradient max            0.00252885     0.00100000    F
 <Mar13-2020> <16:58:44>  constrained gradient rms            0.00083821     0.00066667    F
 <Mar13-2020> <16:58:44>  gradient max                        0.00252885
 <Mar13-2020> <16:58:44>  gradient rms                        0.00083821
 <Mar13-2020> <16:58:44>  cart. step max                      0.00067508     0.01000000    T
 <Mar13-2020> <16:58:44>  cart. step rms                      0.00017446     0.00666667    T
  Coordinates in Geometry Cycle 7
    Atom         X           Y           Z   (Angstrom)
    1.C         0.000000    0.000000    0.668367
    2.C         0.000000    0.000000   -0.808047
    3.N         0.000000    0.000000   -2.013565
    4.H        -1.035043    0.000000    1.048601
    5.H         0.517521   -0.896373    1.048601
    6.H         0.517521    0.896373    1.048601
 <Mar13-2020> <16:58:44>  >>>> CORORT
 <Mar13-2020> <16:58:44>  >>>> CLSMAT
 <Mar13-2020> <16:58:44>  >>>> ORTHON
 <Mar13-2020> <16:58:44>  >>>> GENPT
 <Mar13-2020> <16:58:44>  Block Length= 128
 <Mar13-2020> <16:58:44>  >>>> PTBAS
 <Mar13-2020> <16:58:44>  >>>> CYCLE
 <Mar13-2020> <16:58:45>              |Error|         MaxErr       Wt(A-DIIS)
 <Mar13-2020> <16:58:45>      1      0.00062431      0.00040019
 <Mar13-2020> <16:58:45>      2      0.00079444      0.00034744    100.0
 <Mar13-2020> <16:58:45>      3      0.00033770      0.00014871    100.0
 <Mar13-2020> <16:58:46>      4      0.00018794      0.00010267      0.0
 <Mar13-2020> <16:58:46>      5      0.00004064      0.00001817      0.0
 <Mar13-2020> <16:58:46>      6      0.00000910      0.00000463      0.0
 <Mar13-2020> <16:58:47>      7      0.00000020      0.00000011      0.0
 <Mar13-2020> <16:58:47>  SCF converged
 <Mar13-2020> <16:58:47>      8      0.00000000      0.00000000      0.0
 <Mar13-2020> <16:58:47>  >>>> TOTEN
 <Mar13-2020> <16:58:48>  >>>> POPAN
 <Mar13-2020> <16:58:48>  >>>> DEBYE
 <Mar13-2020> <16:58:48>  >>>> ENGRAD
 <Mar13-2020> <16:58:49>  current energy                               -1.61486304 Hartree
 <Mar13-2020> <16:58:49>  energy change                      -0.00000059     0.00100000    T
 <Mar13-2020> <16:58:49>  constrained gradient max            0.00082640     0.00100000    T
 <Mar13-2020> <16:58:49>  constrained gradient rms            0.00027451     0.00066667    T
 <Mar13-2020> <16:58:49>  gradient max                        0.00082640
 <Mar13-2020> <16:58:49>  gradient rms                        0.00027451
 <Mar13-2020> <16:58:49>  cart. step max                      0.00016985     0.01000000    T
 <Mar13-2020> <16:58:49>  cart. step rms                      0.00004388     0.00666667    T
 <Mar13-2020> <16:58:49>  GEOMETRY CONVERGED
 <Mar13-2020> <16:58:49>  Calculating Energy Terms for Final Geometry
  Coordinates in Geometry Cycle 7
    Atom         X           Y           Z   (Angstrom)
    1.C         0.000000    0.000000    0.668367
    2.C         0.000000    0.000000   -0.808047
    3.N         0.000000    0.000000   -2.013565
    4.H        -1.035043    0.000000    1.048601
    5.H         0.517521   -0.896373    1.048601
    6.H         0.517521    0.896373    1.048601
 <Mar13-2020> <16:58:49>  >>>> CORORT
 <Mar13-2020> <16:58:49>  >>>> CLSMAT
 <Mar13-2020> <16:58:49>  >>>> ORTHON
 <Mar13-2020> <16:58:49>  >>>> GENPT
 <Mar13-2020> <16:58:49>  Block Length= 128
 <Mar13-2020> <16:58:49>  >>>> PTBAS
 <Mar13-2020> <16:58:49>  >>>> CYCLE
 <Mar13-2020> <16:58:50>              |Error|         MaxErr       Wt(A-DIIS)
 <Mar13-2020> <16:58:50>      1      0.00000000      0.00000000
 <Mar13-2020> <16:58:50>      2      0.00000000      0.00000000    100.0
 <Mar13-2020> <16:58:50>  SCF converged
 <Mar13-2020> <16:58:51>      3      0.00000001      0.00000001    100.0
 <Mar13-2020> <16:58:51>  >>>> TOTEN
 <Mar13-2020> <16:58:52>  >>>> POPAN
 <Mar13-2020> <16:58:52>  >>>> DEBYE
 <Mar13-2020> <16:58:52>  >>>> AMETS
 <Mar13-2020> <16:58:52>  >>>> POPUL
 <Mar13-2020> <16:58:52>   Bond Energy          -1.61486304 a.u.
 <Mar13-2020> <16:58:52>   Bond Energy         -43.94265918 eV
 <Mar13-2020> <16:58:52>   Bond Energy       -1013.34       kcal/mol
 <Mar13-2020> <16:58:52>  NORMAL TERMINATION
 <Mar13-2020> <16:58:52>  END
