 DBCSR| Multiplication driver                                               BLAS
 DBCSR| Multrec recursion limit                                              512
 DBCSR| Multiplication stack size                                           1000
 DBCSR| Maximum elements for images                                    UNLIMITED
 DBCSR| Multiplicative factor virtual images                                   1
 DBCSR| Multiplication size stacks                                             3


  **** **** ******  **  PROGRAM STARTED AT               2020-03-19 18:01:39.893
 ***** ** ***  *** **   PROGRAM STARTED ON                     bass-macbook.home
 **    ****   ******    PROGRAM STARTED BY                              bvanbeek
 ***** **    ** ** **   PROGRAM PROCESS ID                                 86020
  **** **  *******  **  PROGRAM STARTED IN /Users/bvanbeek/Documents/GitHub/qmfl
                                           ows/test/test_files/plams_workdir.008
                                           /cp2k_mm_md

 CP2K| version string:                                          CP2K version 6.1
 CP2K| source code revision number:                                    svn:18464
 CP2K| cp2kflags: omp no_statm_access accelerate                                
 CP2K| is freely available from                            https://www.cp2k.org/
 CP2K| Program compiled at                         Fri Apr 19 11:24:34 CEST 2019
 CP2K| Program compiled on                                         192.168.1.124
 CP2K| Program compiled for                       Darwin-IntelMacintosh-gfortran
 CP2K| Data directory path            /Users/bvanbeek/Documents/GitHub/cp2k/data
 CP2K| Input file name                                             cp2k_mm_md.in

 GLOBAL| Force Environment number                                              1
 GLOBAL| Basis set file name                                           BASIS_SET
 GLOBAL| Potential file name                                           POTENTIAL
 GLOBAL| MM Potential file name                                     MM_POTENTIAL
 GLOBAL| Coordinate file name                                      __STD_INPUT__
 GLOBAL| Method name                                                        CP2K
 GLOBAL| Project name                                                       cp2k
 GLOBAL| Preferred FFT library                                             FFTW3
 GLOBAL| Preferred diagonalization lib.                                       SL
 GLOBAL| Run type                                                             MD
 GLOBAL| All-to-all communication in single precision                          F
 GLOBAL| FFTs using library dependent lengths                                  F
 GLOBAL| Global print level                                                  LOW
 GLOBAL| Total number of message passing processes                             1
 GLOBAL| Number of threads for this process                                    4
 GLOBAL| This output is from process                                           0
 GLOBAL| CPU model name : UNKNOWN

 MEMORY| system memory details [Kb]
 MEMORY|                        rank 0           min           max       average
 MEMORY| MemTotal                    0             0             0             0
 MEMORY| MemFree                     0             0             0             0
 MEMORY| Buffers                     0             0             0             0
 MEMORY| Cached                      0             0             0             0
 MEMORY| Slab                        0             0             0             0
 MEMORY| SReclaimable                0             0             0             0
 MEMORY| MemLikelyFree               0             0             0             0

 WARNING : FFT library FFTW3 is not available  Trying FFTSG as a default


                      ************* ******** ***********   
                     ************* **********************  
                     ****     **** ****      ***********   
                     ******** ****  *******     ****       
                     *******  ****   *******   ****        
                     ****     ****       ****  ****        
                     ****     **** **********  ****        
                      ****     **** ********    ****       
                     FRONTIERS IN SIMULATION TECHNOLOGY    
                                                           
                        C.J. Mundy, S. Balasubramanian,    
                     Ken Bagchi, J. Hutter, Ari Seitsonen  
                      IFW Kuo, T. Laino, J. VandeVondele   
                                 Version 1.0               

                                                           

 EWALD|                                                                 not used
     CHM BOND            1 C2O3 C331    200.00000000000000        1.5220000000000000     
     CHM BOND            2 C331 HGA3    322.00000000000000        1.1110000000000000     
     CHM BOND            3 C2O3 O2D2    525.00000000000000        1.2600000000000000     
     CHM BEND            1 O2D2 C2O3 C331    40.000000000000000        116.00000000000000     
     CHM BEND            2 C2O3 C331 HGA3    33.000000000000000        109.50000000000000     
     CHM BEND            3 HGA3 C331 HGA3    35.500000000000000        108.40000000000001     
     CHM BEND            4 O2D2 C2O3 O2D2    100.00000000000000        128.00000000000000     
     CHM TORSION            1 O2D2 C2O3 C331 HGA3    5.0000000000000003E-002           6   180.00000000000000     
     CHM IMPROPERS            1 C2O3 C331 O2D2 O2D2    107.00000000000000        0.0000000000000000     
     CHM NONBOND            1 C2O3   -7.0000000000000007E-002   2.0000000000000000     
     CHM NONBOND            2 C331   -7.8000000000000000E-002   2.0499999999999998     
     CHM NONBOND            3 HGA3   -2.4000000000000000E-002   1.3400000000000001     
     CHM NONBOND            4 O2D2  -0.12000000000000000        1.7000000000000000     

 FORCEFIELD| WARNING: A non Critical ForceField parameter is missing! CP2K GOES!
 FORCEFIELD| Non critical parameters are:Urey-Bradley,Torsions,Impropers, Opbends and 1-4
 FORCEFIELD| All missing parameters will not contribute to the potential energy!

 FORCEFIELD| Missing Urey-Bradley      (C2O3,C331,HGA3)                         
 FORCEFIELD| Missing Urey-Bradley      (O2D2,C2O3,C331)                         
 FORCEFIELD| Missing Urey-Bradley      (O2D2,C2O3,O2D2)                         
 FORCEFIELD| Missing Urey-Bradley      (HGA3,C331,HGA3)                         
 FORCEFIELD| Missing Out of plane bend (C331,O2D2,O2D2,C2O3)                    
 Charge Checking ::C2O3CD                                                                              
 Charge Checking ::CDCD                                                                              

 *** WARNING in force_fields_all.F:3322 :: Multiple Charge declarations: ( ***
 *** CD ) overwriting!                                                     ***

 Charge Checking ::O2D2CD                                                                              
 Charge Checking ::SECD                                                                              
 Charge Checking ::C2O3SE                                                                              
 Charge Checking ::CDSE                                                                              
 Charge Checking ::O2D2SE                                                                              
 Charge Checking ::SESE                                                                              

 *** WARNING in force_fields_all.F:3322 :: Multiple Charge declarations: ( ***
 *** SE ) overwriting!                                                     ***

 Charge Checking ::C2O3C331                                                                            
 Charge Checking ::CDC331                                                                            
 Charge Checking ::O2D2C331                                                                            
 Charge Checking ::SEC331                                                                            
 Charge Checking ::C2O3C2O3                                                                            

 *** WARNING in force_fields_all.F:3322 :: Multiple Charge declarations: ( ***
 *** C2O3 ) overwriting!                                                   ***

 Charge Checking ::CDC2O3                                                                            
 Charge Checking ::O2D2C2O3                                                                            
 Charge Checking ::SEC2O3                                                                            
 Charge Checking ::C2O3O2D2                                                                            
 Charge Checking ::CDO2D2                                                                            
 Charge Checking ::O2D2O2D2                                                                            

 *** WARNING in force_fields_all.F:3322 :: Multiple Charge declarations: ( ***
 *** O2D2 ) overwriting!                                                   ***

 Charge Checking ::SEO2D2                                                                            
 Charge Checking ::C2O3HGA3                                                                            
 Charge Checking ::CDHGA3                                                                            
 Charge Checking ::O2D2HGA3                                                                            
 Charge Checking ::SEHGA3                                                                            
 CHARGE_INFO| Total Charge of the Classical System:                     0.000000
 Matching kinds for MM_RADIUS :: 'CD' with 'C2O3'
 Matching kinds for MM_RADIUS :: 'CD' with 'C331'
 Matching kinds for MM_RADIUS :: 'CD' with 'CD'
 Matching kinds for MM_RADIUS :: 'CD' with 'HGA3'
 Matching kinds for MM_RADIUS :: 'CD' with 'O2D2'
 Matching kinds for MM_RADIUS :: 'CD' with 'SE'
 Matching kinds for MM_RADIUS :: 'SE' with 'C2O3'
 Matching kinds for MM_RADIUS :: 'SE' with 'C331'
 Matching kinds for MM_RADIUS :: 'SE' with 'CD'
 Matching kinds for MM_RADIUS :: 'SE' with 'HGA3'
 Matching kinds for MM_RADIUS :: 'SE' with 'O2D2'
 Matching kinds for MM_RADIUS :: 'SE' with 'SE'
 Matching kinds for MM_RADIUS :: 'C331' with 'C2O3'
 Matching kinds for MM_RADIUS :: 'C331' with 'C331'
 Matching kinds for MM_RADIUS :: 'C331' with 'CD'
 Matching kinds for MM_RADIUS :: 'C331' with 'HGA3'
 Matching kinds for MM_RADIUS :: 'C331' with 'O2D2'
 Matching kinds for MM_RADIUS :: 'C331' with 'SE'
 Matching kinds for MM_RADIUS :: 'C2O3' with 'C2O3'
 Matching kinds for MM_RADIUS :: 'C2O3' with 'C331'
 Matching kinds for MM_RADIUS :: 'C2O3' with 'CD'
 Matching kinds for MM_RADIUS :: 'C2O3' with 'HGA3'
 Matching kinds for MM_RADIUS :: 'C2O3' with 'O2D2'
 Matching kinds for MM_RADIUS :: 'C2O3' with 'SE'
 Matching kinds for MM_RADIUS :: 'O2D2' with 'C2O3'
 Matching kinds for MM_RADIUS :: 'O2D2' with 'C331'
 Matching kinds for MM_RADIUS :: 'O2D2' with 'CD'
 Matching kinds for MM_RADIUS :: 'O2D2' with 'HGA3'
 Matching kinds for MM_RADIUS :: 'O2D2' with 'O2D2'
 Matching kinds for MM_RADIUS :: 'O2D2' with 'SE'
 Matching kinds for MM_RADIUS :: 'HGA3' with 'C2O3'
 Matching kinds for MM_RADIUS :: 'HGA3' with 'C331'
 Matching kinds for MM_RADIUS :: 'HGA3' with 'CD'
 Matching kinds for MM_RADIUS :: 'HGA3' with 'HGA3'
 Matching kinds for MM_RADIUS :: 'HGA3' with 'O2D2'
 Matching kinds for MM_RADIUS :: 'HGA3' with 'SE'
 Total number of particles with a shell ::            0

 FORCEFIELD| WARNING: A non Critical ForceField parameter is missing! CP2K GOES!
 FORCEFIELD| Non critical parameters are:Urey-Bradley,Torsions,Impropers, Opbends and 1-4
 FORCEFIELD| All missing parameters will not contribute to the potential energy!

 FORCEFIELD| Missing Spline_Bond_Env   (  CD,  CD)                              
                                                                                
                                                                                
                                                                                
                                                                                
                                                                                
                                                                                
                                                                                
                                                                                
                                                                                
                                                                                

 SPLINE_INFO| Generating 21 splines for NONBONDED14 interactions 
              Due to 6 different atomic kinds
  ...2  ...4  ...6  ...8  ...10  ...12  ...14  ...16  ...18  ...20
 SPLINE_INFO| Number of unique splines computed:            11
 SPLINE_INFO| Done
     TESTING CDCD with CDC2O3
     TESTING CDCD with CDC331
     TESTING CDCD with CDCD
     FOUND CD CD
     TESTING CDCD with CDHGA3
     TESTING CDCD with CDO2D2
     TESTING CDCD with CDSE
     TESTING CDCD with SEC2O3
     TESTING CDCD with SEC331
     TESTING CDCD with SEHGA3
     TESTING CDCD with SEO2D2
     TESTING CDCD with SESE
     TESTING CDSE with CDC2O3
     TESTING CDSE with CDC331
     TESTING CDSE with CDCD
     TESTING CDSE with CDHGA3
     TESTING CDSE with CDO2D2
     TESTING CDSE with CDSE
     FOUND CD SE
     TESTING CDSE with SEC2O3
     TESTING CDSE with SEC331
     TESTING CDSE with SEHGA3
     TESTING CDSE with SEO2D2
     TESTING CDSE with SESE
     TESTING CDC331 with CDC2O3
     TESTING CDC331 with CDC331
     FOUND CD C331
     TESTING CDC331 with CDCD
     TESTING CDC331 with CDHGA3
     TESTING CDC331 with CDO2D2
     TESTING CDC331 with CDSE
     TESTING CDC331 with SEC2O3
     TESTING CDC331 with SEC331
     TESTING CDC331 with SEHGA3
     TESTING CDC331 with SEO2D2
     TESTING CDC331 with SESE
     TESTING CDC2O3 with CDC2O3
     FOUND CD C2O3
     TESTING CDC2O3 with CDC331
     TESTING CDC2O3 with CDCD
     TESTING CDC2O3 with CDHGA3
     TESTING CDC2O3 with CDO2D2
     TESTING CDC2O3 with CDSE
     TESTING CDC2O3 with SEC2O3
     TESTING CDC2O3 with SEC331
     TESTING CDC2O3 with SEHGA3
     TESTING CDC2O3 with SEO2D2
     TESTING CDC2O3 with SESE
     TESTING CDO2D2 with CDC2O3
     TESTING CDO2D2 with CDC331
     TESTING CDO2D2 with CDCD
     TESTING CDO2D2 with CDHGA3
     TESTING CDO2D2 with CDO2D2
     FOUND CD O2D2
     TESTING CDO2D2 with CDSE
     TESTING CDO2D2 with SEC2O3
     TESTING CDO2D2 with SEC331
     TESTING CDO2D2 with SEHGA3
     TESTING CDO2D2 with SEO2D2
     TESTING CDO2D2 with SESE
     TESTING CDHGA3 with CDC2O3
     TESTING CDHGA3 with CDC331
     TESTING CDHGA3 with CDCD
     TESTING CDHGA3 with CDHGA3
     FOUND CD HGA3
     TESTING CDHGA3 with CDO2D2
     TESTING CDHGA3 with CDSE
     TESTING CDHGA3 with SEC2O3
     TESTING CDHGA3 with SEC331
     TESTING CDHGA3 with SEHGA3
     TESTING CDHGA3 with SEO2D2
     TESTING CDHGA3 with SESE
     TESTING SESE with CDC2O3
     TESTING SESE with CDC331
     TESTING SESE with CDCD
     TESTING SESE with CDHGA3
     TESTING SESE with CDO2D2
     TESTING SESE with CDSE
     TESTING SESE with SEC2O3
     TESTING SESE with SEC331
     TESTING SESE with SEHGA3
     TESTING SESE with SEO2D2
     TESTING SESE with SESE
     FOUND SE SE
     TESTING SEC331 with CDC2O3
     TESTING SEC331 with CDC331
     TESTING SEC331 with CDCD
     TESTING SEC331 with CDHGA3
     TESTING SEC331 with CDO2D2
     TESTING SEC331 with CDSE
     TESTING SEC331 with SEC2O3
     TESTING SEC331 with SEC331
     FOUND SE C331
     TESTING SEC331 with SEHGA3
     TESTING SEC331 with SEO2D2
     TESTING SEC331 with SESE
     TESTING SEC2O3 with CDC2O3
     TESTING SEC2O3 with CDC331
     TESTING SEC2O3 with CDCD
     TESTING SEC2O3 with CDHGA3
     TESTING SEC2O3 with CDO2D2
     TESTING SEC2O3 with CDSE
     TESTING SEC2O3 with SEC2O3
     FOUND SE C2O3
     TESTING SEC2O3 with SEC331
     TESTING SEC2O3 with SEHGA3
     TESTING SEC2O3 with SEO2D2
     TESTING SEC2O3 with SESE
     TESTING SEO2D2 with CDC2O3
     TESTING SEO2D2 with CDC331
     TESTING SEO2D2 with CDCD
     TESTING SEO2D2 with CDHGA3
     TESTING SEO2D2 with CDO2D2
     TESTING SEO2D2 with CDSE
     TESTING SEO2D2 with SEC2O3
     TESTING SEO2D2 with SEC331
     TESTING SEO2D2 with SEHGA3
     TESTING SEO2D2 with SEO2D2
     FOUND SE O2D2
     TESTING SEO2D2 with SESE
     TESTING SEHGA3 with CDC2O3
     TESTING SEHGA3 with CDC331
     TESTING SEHGA3 with CDCD
     TESTING SEHGA3 with CDHGA3
     TESTING SEHGA3 with CDO2D2
     TESTING SEHGA3 with CDSE
     TESTING SEHGA3 with SEC2O3
     TESTING SEHGA3 with SEC331
     TESTING SEHGA3 with SEHGA3
     FOUND SE HGA3
     TESTING SEHGA3 with SEO2D2
     TESTING SEHGA3 with SESE
     TESTING C331C331 with CDC2O3
     TESTING C331C331 with CDC331
     TESTING C331C331 with CDCD
     TESTING C331C331 with CDHGA3
     TESTING C331C331 with CDO2D2
     TESTING C331C331 with CDSE
     TESTING C331C331 with SEC2O3
     TESTING C331C331 with SEC331
     TESTING C331C331 with SEHGA3
     TESTING C331C331 with SEO2D2
     TESTING C331C331 with SESE
     TESTING C331C2O3 with CDC2O3
     TESTING C331C2O3 with CDC331
     TESTING C331C2O3 with CDCD
     TESTING C331C2O3 with CDHGA3
     TESTING C331C2O3 with CDO2D2
     TESTING C331C2O3 with CDSE
     TESTING C331C2O3 with SEC2O3
     TESTING C331C2O3 with SEC331
     TESTING C331C2O3 with SEHGA3
     TESTING C331C2O3 with SEO2D2
     TESTING C331C2O3 with SESE
     TESTING C331O2D2 with CDC2O3
     TESTING C331O2D2 with CDC331
     TESTING C331O2D2 with CDCD
     TESTING C331O2D2 with CDHGA3
     TESTING C331O2D2 with CDO2D2
     TESTING C331O2D2 with CDSE
     TESTING C331O2D2 with SEC2O3
     TESTING C331O2D2 with SEC331
     TESTING C331O2D2 with SEHGA3
     TESTING C331O2D2 with SEO2D2
     TESTING C331O2D2 with SESE
     TESTING C331HGA3 with CDC2O3
     TESTING C331HGA3 with CDC331
     TESTING C331HGA3 with CDCD
     TESTING C331HGA3 with CDHGA3
     TESTING C331HGA3 with CDO2D2
     TESTING C331HGA3 with CDSE
     TESTING C331HGA3 with SEC2O3
     TESTING C331HGA3 with SEC331
     TESTING C331HGA3 with SEHGA3
     TESTING C331HGA3 with SEO2D2
     TESTING C331HGA3 with SESE
     TESTING C2O3C2O3 with CDC2O3
     TESTING C2O3C2O3 with CDC331
     TESTING C2O3C2O3 with CDCD
     TESTING C2O3C2O3 with CDHGA3
     TESTING C2O3C2O3 with CDO2D2
     TESTING C2O3C2O3 with CDSE
     TESTING C2O3C2O3 with SEC2O3
     TESTING C2O3C2O3 with SEC331
     TESTING C2O3C2O3 with SEHGA3
     TESTING C2O3C2O3 with SEO2D2
     TESTING C2O3C2O3 with SESE
     TESTING C2O3O2D2 with CDC2O3
     TESTING C2O3O2D2 with CDC331
     TESTING C2O3O2D2 with CDCD
     TESTING C2O3O2D2 with CDHGA3
     TESTING C2O3O2D2 with CDO2D2
     TESTING C2O3O2D2 with CDSE
     TESTING C2O3O2D2 with SEC2O3
     TESTING C2O3O2D2 with SEC331
     TESTING C2O3O2D2 with SEHGA3
     TESTING C2O3O2D2 with SEO2D2
     TESTING C2O3O2D2 with SESE
     TESTING C2O3HGA3 with CDC2O3
     TESTING C2O3HGA3 with CDC331
     TESTING C2O3HGA3 with CDCD
     TESTING C2O3HGA3 with CDHGA3
     TESTING C2O3HGA3 with CDO2D2
     TESTING C2O3HGA3 with CDSE
     TESTING C2O3HGA3 with SEC2O3
     TESTING C2O3HGA3 with SEC331
     TESTING C2O3HGA3 with SEHGA3
     TESTING C2O3HGA3 with SEO2D2
     TESTING C2O3HGA3 with SESE
     TESTING O2D2O2D2 with CDC2O3
     TESTING O2D2O2D2 with CDC331
     TESTING O2D2O2D2 with CDCD
     TESTING O2D2O2D2 with CDHGA3
     TESTING O2D2O2D2 with CDO2D2
     TESTING O2D2O2D2 with CDSE
     TESTING O2D2O2D2 with SEC2O3
     TESTING O2D2O2D2 with SEC331
     TESTING O2D2O2D2 with SEHGA3
     TESTING O2D2O2D2 with SEO2D2
     TESTING O2D2O2D2 with SESE
     TESTING O2D2HGA3 with CDC2O3
     TESTING O2D2HGA3 with CDC331
     TESTING O2D2HGA3 with CDCD
     TESTING O2D2HGA3 with CDHGA3
     TESTING O2D2HGA3 with CDO2D2
     TESTING O2D2HGA3 with CDSE
     TESTING O2D2HGA3 with SEC2O3
     TESTING O2D2HGA3 with SEC331
     TESTING O2D2HGA3 with SEHGA3
     TESTING O2D2HGA3 with SEO2D2
     TESTING O2D2HGA3 with SESE
     TESTING HGA3HGA3 with CDC2O3
     TESTING HGA3HGA3 with CDC331
     TESTING HGA3HGA3 with CDCD
     TESTING HGA3HGA3 with CDHGA3
     TESTING HGA3HGA3 with CDO2D2
     TESTING HGA3HGA3 with CDSE
     TESTING HGA3HGA3 with SEC2O3
     TESTING HGA3HGA3 with SEC331
     TESTING HGA3HGA3 with SEHGA3
     TESTING HGA3HGA3 with SEO2D2
     TESTING HGA3HGA3 with SESE

 SPLINE_INFO| Generating 21 splines for NONBONDED interactions 
              Due to 6 different atomic kinds
  ...2  ...4  ...6  ...8  ...10  ...12  ...14  ...16  ...18  ...20
 SPLINE_INFO| Number of unique splines computed:            19
 SPLINE_INFO| Done
       atom            1  Cd charge =   0.97680000000000000     
     Mol Kind MOL1 charge =   0.97680000000000000     
       atom            1  Se charge =  -0.97680000000000000     
     Mol Kind MOL2 charge =  -0.97680000000000000     
       atom            1  Cd charge =   0.97680000000000000     
     Mol Kind MOL1 charge =   0.97680000000000000     
       atom            1  Se charge =  -0.97680000000000000     
     Mol Kind MOL2 charge =  -0.97680000000000000     
       atom            1  C331 charge =  -0.34499999999999997     
       atom            2  C2O3 charge =   0.45240000000000002     
       atom            3  O2D2 charge =  -0.47039999999999998     
       atom            4  O2D2 charge =  -0.47039999999999998     
       atom            5  HGA3 charge =   0.11500000000000000     
       atom            6  HGA3 charge =   0.11500000000000000     
       atom            7  HGA3 charge =   0.11500000000000000     
     Mol Kind MOL3 charge =  -0.48839999999999995     
       atom            1  Cd charge =   0.97680000000000000     
       atom            2  Cd charge =   0.97680000000000000     
       atom            3  Cd charge =   0.97680000000000000     
       atom            4  Cd charge =   0.97680000000000000     
       atom            5  Cd charge =   0.97680000000000000     
       atom            6  Cd charge =   0.97680000000000000     
       atom            7  Cd charge =   0.97680000000000000     
       atom            8  Cd charge =   0.97680000000000000     
       atom            9  Cd charge =   0.97680000000000000     
       atom           10  Cd charge =   0.97680000000000000     
       atom           11  Cd charge =   0.97680000000000000     
       atom           12  Cd charge =   0.97680000000000000     
       atom           13  Cd charge =   0.97680000000000000     
       atom           14  Cd charge =   0.97680000000000000     
       atom           15  Cd charge =   0.97680000000000000     
       atom           16  Cd charge =   0.97680000000000000     
       atom           17  Se charge =  -0.97680000000000000     
       atom           18  Se charge =  -0.97680000000000000     
       atom           19  Se charge =  -0.97680000000000000     
       atom           20  Se charge =  -0.97680000000000000     
       atom           21  Se charge =  -0.97680000000000000     
       atom           22  Se charge =  -0.97680000000000000     
       atom           23  Se charge =  -0.97680000000000000     
       atom           24  Se charge =  -0.97680000000000000     
       atom           25  Se charge =  -0.97680000000000000     
       atom           26  Se charge =  -0.97680000000000000     
       atom           27  Se charge =  -0.97680000000000000     
       atom           28  Se charge =  -0.97680000000000000     
       atom           29  Se charge =  -0.97680000000000000     
       atom           30  Cd charge =   0.97680000000000000     
       atom           31  Cd charge =   0.97680000000000000     
       atom           32  Cd charge =   0.97680000000000000     
       atom           33  Cd charge =   0.97680000000000000     
       atom           34  Cd charge =   0.97680000000000000     
       atom           35  Cd charge =   0.97680000000000000     
       atom           36  Cd charge =   0.97680000000000000     
       atom           37  Cd charge =   0.97680000000000000     
       atom           38  Cd charge =   0.97680000000000000     
       atom           39  Cd charge =   0.97680000000000000     
       atom           40  Cd charge =   0.97680000000000000     
       atom           41  Cd charge =   0.97680000000000000     
       atom           42  Cd charge =   0.97680000000000000     
       atom           43  Cd charge =   0.97680000000000000     
       atom           44  Cd charge =   0.97680000000000000     
       atom           45  Cd charge =   0.97680000000000000     
       atom           46  Cd charge =   0.97680000000000000     
       atom           47  Cd charge =   0.97680000000000000     
       atom           48  Cd charge =   0.97680000000000000     
       atom           49  Cd charge =   0.97680000000000000     
       atom           50  Cd charge =   0.97680000000000000     
       atom           51  Cd charge =   0.97680000000000000     
       atom           52  Cd charge =   0.97680000000000000     
       atom           53  Cd charge =   0.97680000000000000     
       atom           54  Cd charge =   0.97680000000000000     
       atom           55  Cd charge =   0.97680000000000000     
       atom           56  Cd charge =   0.97680000000000000     
       atom           57  Cd charge =   0.97680000000000000     
       atom           58  Cd charge =   0.97680000000000000     
       atom           59  Cd charge =   0.97680000000000000     
       atom           60  Cd charge =   0.97680000000000000     
       atom           61  Cd charge =   0.97680000000000000     
       atom           62  Cd charge =   0.97680000000000000     
       atom           63  Cd charge =   0.97680000000000000     
       atom           64  Cd charge =   0.97680000000000000     
       atom           65  Cd charge =   0.97680000000000000     
       atom           66  Cd charge =   0.97680000000000000     
       atom           67  Cd charge =   0.97680000000000000     
       atom           68  Cd charge =   0.97680000000000000     
       atom           69  Cd charge =   0.97680000000000000     
       atom           70  Cd charge =   0.97680000000000000     
       atom           71  Cd charge =   0.97680000000000000     
       atom           72  Cd charge =   0.97680000000000000     
       atom           73  Cd charge =   0.97680000000000000     
       atom           74  Cd charge =   0.97680000000000000     
       atom           75  Cd charge =   0.97680000000000000     
       atom           76  Cd charge =   0.97680000000000000     
       atom           77  Cd charge =   0.97680000000000000     
       atom           78  Cd charge =   0.97680000000000000     
       atom           79  Cd charge =   0.97680000000000000     
       atom           80  Cd charge =   0.97680000000000000     
       atom           81  Cd charge =   0.97680000000000000     
       atom           82  Se charge =  -0.97680000000000000     
       atom           83  Se charge =  -0.97680000000000000     
       atom           84  Se charge =  -0.97680000000000000     
       atom           85  Se charge =  -0.97680000000000000     
       atom           86  Se charge =  -0.97680000000000000     
       atom           87  Se charge =  -0.97680000000000000     
       atom           88  Se charge =  -0.97680000000000000     
       atom           89  Se charge =  -0.97680000000000000     
       atom           90  Se charge =  -0.97680000000000000     
       atom           91  Se charge =  -0.97680000000000000     
       atom           92  Se charge =  -0.97680000000000000     
       atom           93  Se charge =  -0.97680000000000000     
       atom           94  Se charge =  -0.97680000000000000     
       atom           95  Se charge =  -0.97680000000000000     
       atom           96  Se charge =  -0.97680000000000000     
       atom           97  Se charge =  -0.97680000000000000     
       atom           98  Se charge =  -0.97680000000000000     
       atom           99  Se charge =  -0.97680000000000000     
       atom          100  Se charge =  -0.97680000000000000     
       atom          101  Se charge =  -0.97680000000000000     
       atom          102  Se charge =  -0.97680000000000000     
       atom          103  Se charge =  -0.97680000000000000     
       atom          104  Se charge =  -0.97680000000000000     
       atom          105  Se charge =  -0.97680000000000000     
       atom          106  Se charge =  -0.97680000000000000     
       atom          107  Se charge =  -0.97680000000000000     
       atom          108  Se charge =  -0.97680000000000000     
       atom          109  Se charge =  -0.97680000000000000     
       atom          110  Se charge =  -0.97680000000000000     
       atom          111  Se charge =  -0.97680000000000000     
       atom          112  Se charge =  -0.97680000000000000     
       atom          113  Se charge =  -0.97680000000000000     
       atom          114  Se charge =  -0.97680000000000000     
       atom          115  Se charge =  -0.97680000000000000     
       atom          116  Se charge =  -0.97680000000000000     
       atom          117  Se charge =  -0.97680000000000000     
       atom          118  Se charge =  -0.97680000000000000     
       atom          119  Se charge =  -0.97680000000000000     
       atom          120  Se charge =  -0.97680000000000000     
       atom          121  Se charge =  -0.97680000000000000     
       atom          122  Se charge =  -0.97680000000000000     
       atom          123  Se charge =  -0.97680000000000000     
       atom          124  C331 charge =  -0.34499999999999997     
       atom          125  C2O3 charge =   0.45240000000000002     
       atom          126  O2D2 charge =  -0.47039999999999998     
       atom          127  O2D2 charge =  -0.47039999999999998     
       atom          128  HGA3 charge =   0.11500000000000000     
       atom          129  HGA3 charge =   0.11500000000000000     
       atom          130  HGA3 charge =   0.11500000000000000     
       atom          131  C331 charge =  -0.34499999999999997     
       atom          132  C2O3 charge =   0.45240000000000002     
       atom          133  O2D2 charge =  -0.47039999999999998     
       atom          134  O2D2 charge =  -0.47039999999999998     
       atom          135  HGA3 charge =   0.11500000000000000     
       atom          136  HGA3 charge =   0.11500000000000000     
       atom          137  HGA3 charge =   0.11500000000000000     
       atom          138  C331 charge =  -0.34499999999999997     
       atom          139  C2O3 charge =   0.45240000000000002     
       atom          140  O2D2 charge =  -0.47039999999999998     
       atom          141  O2D2 charge =  -0.47039999999999998     
       atom          142  HGA3 charge =   0.11500000000000000     
       atom          143  HGA3 charge =   0.11500000000000000     
       atom          144  HGA3 charge =   0.11500000000000000     
       atom          145  C331 charge =  -0.34499999999999997     
       atom          146  C2O3 charge =   0.45240000000000002     
       atom          147  O2D2 charge =  -0.47039999999999998     
       atom          148  O2D2 charge =  -0.47039999999999998     
       atom          149  HGA3 charge =   0.11500000000000000     
       atom          150  HGA3 charge =   0.11500000000000000     
       atom          151  HGA3 charge =   0.11500000000000000     
       atom          152  C331 charge =  -0.34499999999999997     
       atom          153  C2O3 charge =   0.45240000000000002     
       atom          154  O2D2 charge =  -0.47039999999999998     
       atom          155  O2D2 charge =  -0.47039999999999998     
       atom          156  HGA3 charge =   0.11500000000000000     
       atom          157  HGA3 charge =   0.11500000000000000     
       atom          158  HGA3 charge =   0.11500000000000000     
       atom          159  C331 charge =  -0.34499999999999997     
       atom          160  C2O3 charge =   0.45240000000000002     
       atom          161  O2D2 charge =  -0.47039999999999998     
       atom          162  O2D2 charge =  -0.47039999999999998     
       atom          163  HGA3 charge =   0.11500000000000000     
       atom          164  HGA3 charge =   0.11500000000000000     
       atom          165  HGA3 charge =   0.11500000000000000     
       atom          166  C331 charge =  -0.34499999999999997     
       atom          167  C2O3 charge =   0.45240000000000002     
       atom          168  O2D2 charge =  -0.47039999999999998     
       atom          169  O2D2 charge =  -0.47039999999999998     
       atom          170  HGA3 charge =   0.11500000000000000     
       atom          171  HGA3 charge =   0.11500000000000000     
       atom          172  HGA3 charge =   0.11500000000000000     
       atom          173  C331 charge =  -0.34499999999999997     
       atom          174  C2O3 charge =   0.45240000000000002     
       atom          175  O2D2 charge =  -0.47039999999999998     
       atom          176  O2D2 charge =  -0.47039999999999998     
       atom          177  HGA3 charge =   0.11500000000000000     
       atom          178  HGA3 charge =   0.11500000000000000     
       atom          179  HGA3 charge =   0.11500000000000000     
       atom          180  C331 charge =  -0.34499999999999997     
       atom          181  C2O3 charge =   0.45240000000000002     
       atom          182  O2D2 charge =  -0.47039999999999998     
       atom          183  O2D2 charge =  -0.47039999999999998     
       atom          184  HGA3 charge =   0.11500000000000000     
       atom          185  HGA3 charge =   0.11500000000000000     
       atom          186  HGA3 charge =   0.11500000000000000     
       atom          187  C331 charge =  -0.34499999999999997     
       atom          188  C2O3 charge =   0.45240000000000002     
       atom          189  O2D2 charge =  -0.47039999999999998     
       atom          190  O2D2 charge =  -0.47039999999999998     
       atom          191  HGA3 charge =   0.11500000000000000     
       atom          192  HGA3 charge =   0.11500000000000000     
       atom          193  HGA3 charge =   0.11500000000000000     
       atom          194  C331 charge =  -0.34499999999999997     
       atom          195  C2O3 charge =   0.45240000000000002     
       atom          196  O2D2 charge =  -0.47039999999999998     
       atom          197  O2D2 charge =  -0.47039999999999998     
       atom          198  HGA3 charge =   0.11500000000000000     
       atom          199  HGA3 charge =   0.11500000000000000     
       atom          200  HGA3 charge =   0.11500000000000000     
       atom          201  C331 charge =  -0.34499999999999997     
       atom          202  C2O3 charge =   0.45240000000000002     
       atom          203  O2D2 charge =  -0.47039999999999998     
       atom          204  O2D2 charge =  -0.47039999999999998     
       atom          205  HGA3 charge =   0.11500000000000000     
       atom          206  HGA3 charge =   0.11500000000000000     
       atom          207  HGA3 charge =   0.11500000000000000     
       atom          208  C331 charge =  -0.34499999999999997     
       atom          209  C2O3 charge =   0.45240000000000002     
       atom          210  O2D2 charge =  -0.47039999999999998     
       atom          211  O2D2 charge =  -0.47039999999999998     
       atom          212  HGA3 charge =   0.11500000000000000     
       atom          213  HGA3 charge =   0.11500000000000000     
       atom          214  HGA3 charge =   0.11500000000000000     
       atom          215  C331 charge =  -0.34499999999999997     
       atom          216  C2O3 charge =   0.45240000000000002     
       atom          217  O2D2 charge =  -0.47039999999999998     
       atom          218  O2D2 charge =  -0.47039999999999998     
       atom          219  HGA3 charge =   0.11500000000000000     
       atom          220  HGA3 charge =   0.11500000000000000     
       atom          221  HGA3 charge =   0.11500000000000000     
       atom          222  C331 charge =  -0.34499999999999997     
       atom          223  C2O3 charge =   0.45240000000000002     
       atom          224  O2D2 charge =  -0.47039999999999998     
       atom          225  O2D2 charge =  -0.47039999999999998     
       atom          226  HGA3 charge =   0.11500000000000000     
       atom          227  HGA3 charge =   0.11500000000000000     
       atom          228  HGA3 charge =   0.11500000000000000     
       atom          229  C331 charge =  -0.34499999999999997     
       atom          230  C2O3 charge =   0.45240000000000002     
       atom          231  O2D2 charge =  -0.47039999999999998     
       atom          232  O2D2 charge =  -0.47039999999999998     
       atom          233  HGA3 charge =   0.11500000000000000     
       atom          234  HGA3 charge =   0.11500000000000000     
       atom          235  HGA3 charge =   0.11500000000000000     
       atom          236  C331 charge =  -0.34499999999999997     
       atom          237  C2O3 charge =   0.45240000000000002     
       atom          238  O2D2 charge =  -0.47039999999999998     
       atom          239  O2D2 charge =  -0.47039999999999998     
       atom          240  HGA3 charge =   0.11500000000000000     
       atom          241  HGA3 charge =   0.11500000000000000     
       atom          242  HGA3 charge =   0.11500000000000000     
       atom          243  C331 charge =  -0.34499999999999997     
       atom          244  C2O3 charge =   0.45240000000000002     
       atom          245  O2D2 charge =  -0.47039999999999998     
       atom          246  O2D2 charge =  -0.47039999999999998     
       atom          247  HGA3 charge =   0.11500000000000000     
       atom          248  HGA3 charge =   0.11500000000000000     
       atom          249  HGA3 charge =   0.11500000000000000     
       atom          250  C331 charge =  -0.34499999999999997     
       atom          251  C2O3 charge =   0.45240000000000002     
       atom          252  O2D2 charge =  -0.47039999999999998     
       atom          253  O2D2 charge =  -0.47039999999999998     
       atom          254  HGA3 charge =   0.11500000000000000     
       atom          255  HGA3 charge =   0.11500000000000000     
       atom          256  HGA3 charge =   0.11500000000000000     
       atom          257  C331 charge =  -0.34499999999999997     
       atom          258  C2O3 charge =   0.45240000000000002     
       atom          259  O2D2 charge =  -0.47039999999999998     
       atom          260  O2D2 charge =  -0.47039999999999998     
       atom          261  HGA3 charge =   0.11500000000000000     
       atom          262  HGA3 charge =   0.11500000000000000     
       atom          263  HGA3 charge =   0.11500000000000000     
       atom          264  C331 charge =  -0.34499999999999997     
       atom          265  C2O3 charge =   0.45240000000000002     
       atom          266  O2D2 charge =  -0.47039999999999998     
       atom          267  O2D2 charge =  -0.47039999999999998     
       atom          268  HGA3 charge =   0.11500000000000000     
       atom          269  HGA3 charge =   0.11500000000000000     
       atom          270  HGA3 charge =   0.11500000000000000     
       atom          271  C331 charge =  -0.34499999999999997     
       atom          272  C2O3 charge =   0.45240000000000002     
       atom          273  O2D2 charge =  -0.47039999999999998     
       atom          274  O2D2 charge =  -0.47039999999999998     
       atom          275  HGA3 charge =   0.11500000000000000     
       atom          276  HGA3 charge =   0.11500000000000000     
       atom          277  HGA3 charge =   0.11500000000000000     
       atom          278  C331 charge =  -0.34499999999999997     
       atom          279  C2O3 charge =   0.45240000000000002     
       atom          280  O2D2 charge =  -0.47039999999999998     
       atom          281  O2D2 charge =  -0.47039999999999998     
       atom          282  HGA3 charge =   0.11500000000000000     
       atom          283  HGA3 charge =   0.11500000000000000     
       atom          284  HGA3 charge =   0.11500000000000000     
       atom          285  C331 charge =  -0.34499999999999997     
       atom          286  C2O3 charge =   0.45240000000000002     
       atom          287  O2D2 charge =  -0.47039999999999998     
       atom          288  O2D2 charge =  -0.47039999999999998     
       atom          289  HGA3 charge =   0.11500000000000000     
       atom          290  HGA3 charge =   0.11500000000000000     
       atom          291  HGA3 charge =   0.11500000000000000     
       atom          292  C331 charge =  -0.34499999999999997     
       atom          293  C2O3 charge =   0.45240000000000002     
       atom          294  O2D2 charge =  -0.47039999999999998     
       atom          295  O2D2 charge =  -0.47039999999999998     
       atom          296  HGA3 charge =   0.11500000000000000     
       atom          297  HGA3 charge =   0.11500000000000000     
       atom          298  HGA3 charge =   0.11500000000000000     
       atom          299  C331 charge =  -0.34499999999999997     
       atom          300  C2O3 charge =   0.45240000000000002     
       atom          301  O2D2 charge =  -0.47039999999999998     
       atom          302  O2D2 charge =  -0.47039999999999998     
       atom          303  HGA3 charge =   0.11500000000000000     
       atom          304  HGA3 charge =   0.11500000000000000     
       atom          305  HGA3 charge =   0.11500000000000000     
    Total system charge =         0.0000000000
    Total system mass   =  24650138.9535497911
     Mol(           5 ) Old BOND Count:            6           3
     1     5
     1     6
     1     7
     2     1
     3     2
     4     2
     Mol(           5 ) Old BEND Count:            9           4
     2     1     5
     2     1     6
     2     1     7
     3     2     1
     4     2     1
     4     2     3
     6     1     5
     7     1     5
     7     1     6
     Mol(           5 ) Old UB Count:            9           4
     2     1     5
     2     1     6
     2     1     7
     3     2     1
     4     2     1
     4     2     3
     6     1     5
     7     1     5
     7     1     6
     Mol(           5 ) New UB Count:            0           0

     Mol(           5 ) Old TORSION Count:            6           1
     5     1     2     3
     5     1     2     4
     6     1     2     3
     6     1     2     4
     7     1     2     3
     7     1     2     4
     Mol(           5 ) Old IMPROPER Count:            1           1
     Mol(           5 ) Old OPBEND Count:            1           1
     Mol(           5 ) New OPBEND Count:            0           0

 MD| Molecular Dynamics Protocol 
 MD| Ensemble Type                                                           NVT
 MD| Number of Time Steps                                                   1000
 MD| Time Step [fs]                                                         1.00
 MD| Temperature [K]                                                      300.00
 MD| Temperature tolerance [K]                                              0.00
 MD| Print MD information every                                        1 step(s)
 MD| File type     Print frequency[steps]                             File names
 MD| Coordinates            1                                     cp2k-pos-1.xyz
 MD| Velocities             1                                     cp2k-vel-1.xyz
 MD| Energies               1                                        cp2k-1.ener
 MD| Dump                  20                                     cp2k-1.restart

 ROT| Rotational Analysis Info 
 ROT| Principal axes and moments of inertia in atomic units:
 ROT|                                1                 2                 3
 ROT| EIGENVALUES            0.349472493E+10   0.361349884E+10   0.362557986E+10
 ROT|      X                    -0.219390103       0.691891248      -0.687862256
 ROT|      Y                    -0.739432418       0.342032282       0.579873794
 ROT|      Z                    -0.636480700      -0.635846223      -0.436568321
 ROT| Numer of Rotovibrational vectors:     6

 Calculation of degrees of freedom
                                                      Number of atoms:       305
                                 Number of Intramolecular constraints:         0
                                 Number of Intermolecular constraints:         0
                                  Invariants(translation + rotations):         6
                                                   Degrees of freedom:       909


 Restraints Information
                                  Number of Intramolecular restraints:         0
                                  Number of Intermolecular restraints:         0

 THERMOSTAT| Thermostat Info for PARTICLES
 THERMOSTAT| Type of thermostat            Canonical Sampling/Velocity Rescaling
 THERMOSTAT| CSVR time constant [  fs]                                   1250.00
 THERMOSTAT| Initial Kinetic Energy                                     0.000000
 THERMOSTAT| End of Thermostat Info for PARTICLES

 ************************** Velocities initialization **************************
 Initial Temperature                                                    300.00 K
 COM velocity:            0.000000000000      0.000000000000      0.000000000000
 COM position:           -0.139298226245      0.000750074901     -0.027594227933
 Angular velocity:        0.000000487442     -0.000000212695     -0.000000862854
 *******************************************************************************


 ENERGY| Total FORCE_EVAL ( FIST ) energy (a.u.):            -15.511438261890468


 MD_ENERGIES| Initialization proceeding


 ******************************** GO CP2K GO! **********************************
 INITIAL POTENTIAL ENERGY[hartree]     =                     -0.155114382619E+02
 INITIAL KINETIC ENERGY[hartree]       =                      0.431795272057E+00
 INITIAL TEMPERATURE[K]                =                                 300.000
 INITIAL VOLUME[bohr^3]                =                      0.843541822886E+06
 INITIAL CELL LNTHS[bohr]   =      0.9448631E+02   0.9448631E+02   0.9448631E+02
 INITIAL CELL ANGLS[deg]    =      0.9000000E+02   0.9000000E+02   0.9000000E+02
 ******************************** GO CP2K GO! **********************************

 ENERGY| Total FORCE_EVAL ( FIST ) energy (a.u.):            -15.506251602289105


 *******************************************************************************
 ENSEMBLE TYPE                =                                              NVT
 STEP NUMBER                  =                                                1
 TIME [fs]                    =                                         1.000000
 CONSERVED QUANTITY [hartree] =                              -0.150789252353E+02

                                              INSTANTANEOUS             AVERAGES
 CPU TIME [s]                 =                        0.16                 0.16
 ENERGY DRIFT PER ATOM [K]    =          0.743110446597E+00   0.000000000000E+00
 POTENTIAL ENERGY[hartree]    =         -0.155062516023E+02  -0.155062516023E+02
 KINETIC ENERGY [hartree]     =          0.426910071102E+00   0.426910071102E+00
 TEMPERATURE [K]              =                     296.606              296.606
 *******************************************************************************


 ENERGY| Total FORCE_EVAL ( FIST ) energy (a.u.):            -15.505019053080566


 *******************************************************************************
 ENSEMBLE TYPE                =                                              NVT
 STEP NUMBER                  =                                                2
 TIME [fs]                    =                                         2.000000
 CONSERVED QUANTITY [hartree] =                              -0.150779686759E+02

                                              INSTANTANEOUS             AVERAGES
 CPU TIME [s]                 =                        0.06                 0.11
 ENERGY DRIFT PER ATOM [K]    =          0.173346193087E+01   0.866730965435E+00
 POTENTIAL ENERGY[hartree]    =         -0.155050190531E+02  -0.155056353277E+02
 KINETIC ENERGY [hartree]     =          0.427652888995E+00   0.427281480049E+00
 TEMPERATURE [K]              =                     297.122              296.864
 *******************************************************************************


 ENERGY| Total FORCE_EVAL ( FIST ) energy (a.u.):            -15.521341292185712


 *******************************************************************************
 ENSEMBLE TYPE                =                                              NVT
 STEP NUMBER                  =                                                3
 TIME [fs]                    =                                         3.000000
 CONSERVED QUANTITY [hartree] =                              -0.150781872877E+02

                                              INSTANTANEOUS             AVERAGES
 CPU TIME [s]                 =                        0.04                 0.09
 ENERGY DRIFT PER ATOM [K]    =          0.150712727121E+01   0.108019640069E+01
 POTENTIAL ENERGY[hartree]    =         -0.155213412922E+02  -0.155108706492E+02
 KINETIC ENERGY [hartree]     =          0.443054633850E+00   0.432539197982E+00
 TEMPERATURE [K]              =                     307.823              300.517
 *******************************************************************************


 ENERGY| Total FORCE_EVAL ( FIST ) energy (a.u.):            -15.551282774749277


 *******************************************************************************
 ENSEMBLE TYPE                =                                              NVT
 STEP NUMBER                  =                                                4
 TIME [fs]                    =                                         4.000000
 CONSERVED QUANTITY [hartree] =                              -0.150797890302E+02

                                              INSTANTANEOUS             AVERAGES
 CPU TIME [s]                 =                        0.04                 0.07
 ENERGY DRIFT PER ATOM [K]    =         -0.151199512309E+00   0.772347422442E+00
 POTENTIAL ENERGY[hartree]    =         -0.155512827747E+02  -0.155209736806E+02
 KINETIC ENERGY [hartree]     =          0.469874080355E+00   0.441872918575E+00
 TEMPERATURE [K]              =                     326.456              307.002
 *******************************************************************************


 ENERGY| Total FORCE_EVAL ( FIST ) energy (a.u.):            -15.571058530379116


 *******************************************************************************
 ENSEMBLE TYPE                =                                              NVT
 STEP NUMBER                  =                                                5
 TIME [fs]                    =                                         5.000000
 CONSERVED QUANTITY [hartree] =                              -0.150813397739E+02

                                              INSTANTANEOUS             AVERAGES
 CPU TIME [s]                 =                        0.04                 0.07
 ENERGY DRIFT PER ATOM [K]    =         -0.175672591067E+01   0.266532755819E+00
 POTENTIAL ENERGY[hartree]    =         -0.155710585304E+02  -0.155309906505E+02
 KINETIC ENERGY [hartree]     =          0.488573195544E+00   0.451212973969E+00
 TEMPERATURE [K]              =                     339.448              313.491
 *******************************************************************************


 ENERGY| Total FORCE_EVAL ( FIST ) energy (a.u.):            -15.557718342546570


 *******************************************************************************
 ENSEMBLE TYPE                =                                              NVT
 STEP NUMBER                  =                                                6
 TIME [fs]                    =                                         6.000000
 CONSERVED QUANTITY [hartree] =                              -0.150812644868E+02

                                              INSTANTANEOUS             AVERAGES
 CPU TIME [s]                 =                        0.04                 0.06
 ENERGY DRIFT PER ATOM [K]    =         -0.167877907679E+01  -0.576858829493E-01
 POTENTIAL ENERGY[hartree]    =         -0.155577183425E+02  -0.155354452659E+02
 KINETIC ENERGY [hartree]     =          0.475087519145E+00   0.455192064832E+00
 TEMPERATURE [K]              =                     330.078              316.255
 *******************************************************************************


 ENERGY| Total FORCE_EVAL ( FIST ) energy (a.u.):            -15.512731967387829


 *******************************************************************************
 ENSEMBLE TYPE                =                                              NVT
 STEP NUMBER                  =                                                7
 TIME [fs]                    =                                         7.000000
 CONSERVED QUANTITY [hartree] =                              -0.150794571459E+02

                                              INSTANTANEOUS             AVERAGES
 CPU TIME [s]                 =                        0.04                 0.06
 ENERGY DRIFT PER ATOM [K]    =          0.192409158608E+00  -0.219580198697E-01
 POTENTIAL ENERGY[hartree]    =         -0.155127319674E+02  -0.155322005089E+02
 KINETIC ENERGY [hartree]     =          0.431898918411E+00   0.451864472486E+00
 TEMPERATURE [K]              =                     300.072              313.944
 *******************************************************************************


 ENERGY| Total FORCE_EVAL ( FIST ) energy (a.u.):            -15.463828492792352


 *******************************************************************************
 ENSEMBLE TYPE                =                                              NVT
 STEP NUMBER                  =                                                8
 TIME [fs]                    =                                         8.000000
 CONSERVED QUANTITY [hartree] =                              -0.150774399555E+02

                                              INSTANTANEOUS             AVERAGES
 CPU TIME [s]                 =                        0.04                 0.06
 ENERGY DRIFT PER ATOM [K]    =          0.228086028655E+01   0.265894268433E+00
 POTENTIAL ENERGY[hartree]    =         -0.154638284928E+02  -0.155236540069E+02
 KINETIC ENERGY [hartree]     =          0.384125034804E+00   0.443397042776E+00
 TEMPERATURE [K]              =                     266.880              308.061
 *******************************************************************************


 ENERGY| Total FORCE_EVAL ( FIST ) energy (a.u.):            -15.441512383703763


 *******************************************************************************
 ENSEMBLE TYPE                =                                              NVT
 STEP NUMBER                  =                                                9
 TIME [fs]                    =                                         9.000000
 CONSERVED QUANTITY [hartree] =                              -0.150769228673E+02

                                              INSTANTANEOUS             AVERAGES
 CPU TIME [s]                 =                        0.04                 0.05
 ENERGY DRIFT PER ATOM [K]    =          0.281621550809E+01   0.549263295062E+00
 POTENTIAL ENERGY[hartree]    =         -0.154415123837E+02  -0.155145271599E+02
 KINETIC ENERGY [hartree]     =          0.362604305478E+00   0.434420071965E+00
 TEMPERATURE [K]              =                     251.928              301.824
 *******************************************************************************


 ENERGY| Total FORCE_EVAL ( FIST ) energy (a.u.):            -15.453924120701970


 *******************************************************************************
 ENSEMBLE TYPE                =                                              NVT
 STEP NUMBER                  =                                               10
 TIME [fs]                    =                                        10.000000
 CONSERVED QUANTITY [hartree] =                              -0.150780521381E+02

                                              INSTANTANEOUS             AVERAGES
 CPU TIME [s]                 =                        0.03                 0.05
 ENERGY DRIFT PER ATOM [K]    =          0.164705130359E+01   0.659042095914E+00
 POTENTIAL ENERGY[hartree]    =         -0.154539241207E+02  -0.155084668560E+02
 KINETIC ENERGY [hartree]     =          0.374047756845E+00   0.428382840453E+00
 TEMPERATURE [K]              =                     259.879              297.629
 *******************************************************************************


 ENERGY| Total FORCE_EVAL ( FIST ) energy (a.u.):            -15.484495884812105


 *******************************************************************************
 ENSEMBLE TYPE                =                                              NVT
 STEP NUMBER                  =                                               11
 TIME [fs]                    =                                        11.000000
 CONSERVED QUANTITY [hartree] =                              -0.150794422847E+02

                                              INSTANTANEOUS             AVERAGES
 CPU TIME [s]                 =                        0.04                 0.05
 ENERGY DRIFT PER ATOM [K]    =          0.207795343808E+00   0.618019663904E+00
 POTENTIAL ENERGY[hartree]    =         -0.154844958848E+02  -0.155062876768E+02
 KINETIC ENERGY [hartree]     =          0.402173597881E+00   0.426000182037E+00
 TEMPERATURE [K]              =                     279.420              295.974
 *******************************************************************************


 ENERGY| Total FORCE_EVAL ( FIST ) energy (a.u.):            -15.512468750221931


 *******************************************************************************
 ENSEMBLE TYPE                =                                              NVT
 STEP NUMBER                  =                                               12
 TIME [fs]                    =                                        12.000000
 CONSERVED QUANTITY [hartree] =                              -0.150797636085E+02

                                              INSTANTANEOUS             AVERAGES
 CPU TIME [s]                 =                        0.04                 0.05
 ENERGY DRIFT PER ATOM [K]    =         -0.124879721431E+00   0.556111381793E+00
 POTENTIAL ENERGY[hartree]    =         -0.155124687502E+02  -0.155068027662E+02
 KINETIC ENERGY [hartree]     =          0.429273296621E+00   0.426272941586E+00
 TEMPERATURE [K]              =                     298.248              296.163
 *******************************************************************************


 ENERGY| Total FORCE_EVAL ( FIST ) energy (a.u.):            -15.532796897661839


 *******************************************************************************
 ENSEMBLE TYPE                =                                              NVT
 STEP NUMBER                  =                                               13
 TIME [fs]                    =                                        13.000000
 CONSERVED QUANTITY [hartree] =                              -0.150791242293E+02

                                              INSTANTANEOUS             AVERAGES
 CPU TIME [s]                 =                        0.04                 0.05
 ENERGY DRIFT PER ATOM [K]    =          0.537086666035E+00   0.554647942120E+00
 POTENTIAL ENERGY[hartree]    =         -0.155327968977E+02  -0.155088023148E+02
 KINETIC ENERGY [hartree]     =          0.450128533232E+00   0.428107987097E+00
 TEMPERATURE [K]              =                     312.737              297.438
 *******************************************************************************


 ENERGY| Total FORCE_EVAL ( FIST ) energy (a.u.):            -15.554493115465977


 *******************************************************************************
 ENSEMBLE TYPE                =                                              NVT
 STEP NUMBER                  =                                               14
 TIME [fs]                    =                                        14.000000
 CONSERVED QUANTITY [hartree] =                              -0.150787988316E+02

                                              INSTANTANEOUS             AVERAGES
 CPU TIME [s]                 =                        0.04                 0.05
 ENERGY DRIFT PER ATOM [K]    =          0.873979589134E+00   0.577457345478E+00
 POTENTIAL ENERGY[hartree]    =         -0.155544931155E+02  -0.155120659434E+02
 KINETIC ENERGY [hartree]     =          0.471567303003E+00   0.431212223948E+00
 TEMPERATURE [K]              =                     327.633              299.595
 *******************************************************************************


 ENERGY| Total FORCE_EVAL ( FIST ) energy (a.u.):            -15.581995428137541


 *******************************************************************************
 ENSEMBLE TYPE                =                                              NVT
 STEP NUMBER                  =                                               15
 TIME [fs]                    =                                        15.000000
 CONSERVED QUANTITY [hartree] =                              -0.150796390597E+02

                                              INSTANTANEOUS             AVERAGES
 CPU TIME [s]                 =                        0.04                 0.05
 ENERGY DRIFT PER ATOM [K]    =          0.406898166282E-02   0.539231454557E+00
 POTENTIAL ENERGY[hartree]    =         -0.155819954281E+02  -0.155167279091E+02
 KINETIC ENERGY [hartree]     =          0.499365428180E+00   0.435755770896E+00
 TEMPERATURE [K]              =                     346.946              302.752
 *******************************************************************************


 ENERGY| Total FORCE_EVAL ( FIST ) energy (a.u.):            -15.602572586383962


 *******************************************************************************
 ENSEMBLE TYPE                =                                              NVT
 STEP NUMBER                  =                                               16
 TIME [fs]                    =                                        16.000000
 CONSERVED QUANTITY [hartree] =                              -0.150809674771E+02

                                              INSTANTANEOUS             AVERAGES
 CPU TIME [s]                 =                        0.04                 0.05
 ENERGY DRIFT PER ATOM [K]    =         -0.137127703587E+01   0.419824673905E+00
 POTENTIAL ENERGY[hartree]    =         -0.156025725864E+02  -0.155220932014E+02
 KINETIC ENERGY [hartree]     =          0.518654807145E+00   0.440936960662E+00
 TEMPERATURE [K]              =                     360.348              306.351
 *******************************************************************************


 ENERGY| Total FORCE_EVAL ( FIST ) energy (a.u.):            -15.596565465150574


 *******************************************************************************
 ENSEMBLE TYPE                =                                              NVT
 STEP NUMBER                  =                                               17
 TIME [fs]                    =                                        17.000000
 CONSERVED QUANTITY [hartree] =                              -0.150812433696E+02

                                              INSTANTANEOUS             AVERAGES
 CPU TIME [s]                 =                        0.04                 0.05
 ENERGY DRIFT PER ATOM [K]    =         -0.165691594336E+01   0.297663461125E+00
 POTENTIAL ENERGY[hartree]    =         -0.155965654652E+02  -0.155264739228E+02
 KINETIC ENERGY [hartree]     =          0.512043012056E+00   0.445119669567E+00
 TEMPERATURE [K]              =                     355.754              309.257
 *******************************************************************************


 ENERGY| Total FORCE_EVAL ( FIST ) energy (a.u.):            -15.560484888645224


 *******************************************************************************
 ENSEMBLE TYPE                =                                              NVT
 STEP NUMBER                  =                                               18
 TIME [fs]                    =                                        18.000000
 CONSERVED QUANTITY [hartree] =                              -0.150796993988E+02

                                              INSTANTANEOUS             AVERAGES
 CPU TIME [s]                 =                        0.04                 0.05
 ENERGY DRIFT PER ATOM [K]    =         -0.584016927634E-01   0.277882063686E+00
 POTENTIAL ENERGY[hartree]    =         -0.155604848886E+02  -0.155283634209E+02
 KINETIC ENERGY [hartree]     =          0.478716673025E+00   0.446986169760E+00
 TEMPERATURE [K]              =                     332.600              310.554
 *******************************************************************************


 ENERGY| Total FORCE_EVAL ( FIST ) energy (a.u.):            -15.517029126916565


 *******************************************************************************
 ENSEMBLE TYPE                =                                              NVT
 STEP NUMBER                  =                                               19
 TIME [fs]                    =                                        19.000000
 CONSERVED QUANTITY [hartree] =                              -0.150774979878E+02

                                              INSTANTANEOUS             AVERAGES
 CPU TIME [s]                 =                        0.04                 0.05
 ENERGY DRIFT PER ATOM [K]    =          0.222077793271E+01   0.380139741003E+00
 POTENTIAL ENERGY[hartree]    =         -0.155170291269E+02  -0.155277668791E+02
 KINETIC ENERGY [hartree]     =          0.438623754332E+00   0.446546042632E+00
 TEMPERATURE [K]              =                     304.744              310.248
 *******************************************************************************


 ENERGY| Total FORCE_EVAL ( FIST ) energy (a.u.):            -15.499308386286259


 *******************************************************************************
 ENSEMBLE TYPE                =                                              NVT
 STEP NUMBER                  =                                               20
 TIME [fs]                    =                                        20.000000
 CONSERVED QUANTITY [hartree] =                              -0.150764756972E+02

                                              INSTANTANEOUS             AVERAGES
 CPU TIME [s]                 =                        0.03                 0.05
 ENERGY DRIFT PER ATOM [K]    =          0.327918267261E+01   0.525091887584E+00
 POTENTIAL ENERGY[hartree]    =         -0.154993083863E+02  -0.155263439545E+02
 KINETIC ENERGY [hartree]     =          0.421108950606E+00   0.445274188031E+00
 TEMPERATURE [K]              =                     292.575              309.365
 *******************************************************************************


 ENERGY| Total FORCE_EVAL ( FIST ) energy (a.u.):            -15.522874509251251


 *******************************************************************************
 ENSEMBLE TYPE                =                                              NVT
 STEP NUMBER                  =                                               21
 TIME [fs]                    =                                        21.000000
 CONSERVED QUANTITY [hartree] =                              -0.150774364365E+02

                                              INSTANTANEOUS             AVERAGES
 CPU TIME [s]                 =                        0.05                 0.05
 ENERGY DRIFT PER ATOM [K]    =          0.228450360399E+01   0.608873397889E+00
 POTENTIAL ENERGY[hartree]    =         -0.155228745093E+02  -0.155261787428E+02
 KINETIC ENERGY [hartree]     =          0.442969256220E+00   0.445164429373E+00
 TEMPERATURE [K]              =                     307.763              309.289
 *******************************************************************************


 ENERGY| Total FORCE_EVAL ( FIST ) energy (a.u.):            -15.573587819078497


 *******************************************************************************
 ENSEMBLE TYPE                =                                              NVT
 STEP NUMBER                  =                                               22
 TIME [fs]                    =                                        22.000000
 CONSERVED QUANTITY [hartree] =                              -0.150793831805E+02

                                              INSTANTANEOUS             AVERAGES
 CPU TIME [s]                 =                        0.04                 0.05
 ENERGY DRIFT PER ATOM [K]    =          0.268987535087E+00   0.593424040489E+00
 POTENTIAL ENERGY[hartree]    =         -0.155735878191E+02  -0.155283337008E+02
 KINETIC ENERGY [hartree]     =          0.492581990405E+00   0.447319773056E+00
 TEMPERATURE [K]              =                     342.233              310.786
 *******************************************************************************


 ENERGY| Total FORCE_EVAL ( FIST ) energy (a.u.):            -15.622456723778360


 *******************************************************************************
 ENSEMBLE TYPE                =                                              NVT
 STEP NUMBER                  =                                               23
 TIME [fs]                    =                                        23.000000
 CONSERVED QUANTITY [hartree] =                              -0.150805864111E+02

                                              INSTANTANEOUS             AVERAGES
 CPU TIME [s]                 =                        0.04                 0.05
 ENERGY DRIFT PER ATOM [K]    =         -0.976749226425E+00   0.525155637580E+00
 POTENTIAL ENERGY[hartree]    =         -0.156224567238E+02  -0.155324260062E+02
 KINETIC ENERGY [hartree]     =          0.540709031113E+00   0.451380175580E+00
 TEMPERATURE [K]              =                     375.670              313.607
 *******************************************************************************


 ENERGY| Total FORCE_EVAL ( FIST ) energy (a.u.):            -15.651051507302123


 *******************************************************************************
 ENSEMBLE TYPE                =                                              NVT
 STEP NUMBER                  =                                               24
 TIME [fs]                    =                                        24.000000
 CONSERVED QUANTITY [hartree] =                              -0.150803490865E+02

                                              INSTANTANEOUS             AVERAGES
 CPU TIME [s]                 =                        0.04                 0.05
 ENERGY DRIFT PER ATOM [K]    =         -0.731040760097E+00   0.472814121010E+00
 POTENTIAL ENERGY[hartree]    =         -0.156510515073E+02  -0.155373687354E+02
 KINETIC ENERGY [hartree]     =          0.569357657142E+00   0.456295903979E+00
 TEMPERATURE [K]              =                     395.575              317.022
 *******************************************************************************


 ENERGY| Total FORCE_EVAL ( FIST ) energy (a.u.):            -15.662179804285525


 *******************************************************************************
 ENSEMBLE TYPE                =                                              NVT
 STEP NUMBER                  =                                               25
 TIME [fs]                    =                                        25.000000
 CONSERVED QUANTITY [hartree] =                              -0.150795494748E+02

                                              INSTANTANEOUS             AVERAGES
 CPU TIME [s]                 =                        0.04                 0.05
 ENERGY DRIFT PER ATOM [K]    =          0.968186610118E-01   0.457774302610E+00
 POTENTIAL ENERGY[hartree]    =         -0.156621798043E+02  -0.155423611781E+02
 KINETIC ENERGY [hartree]     =          0.579089490900E+00   0.461207647456E+00
 TEMPERATURE [K]              =                     402.336              320.435
 *******************************************************************************


 ENERGY| Total FORCE_EVAL ( FIST ) energy (a.u.):            -15.667526205662217


 *******************************************************************************
 ENSEMBLE TYPE                =                                              NVT
 STEP NUMBER                  =                                               26
 TIME [fs]                    =                                        26.000000
 CONSERVED QUANTITY [hartree] =                              -0.150794216365E+02

                                              INSTANTANEOUS             AVERAGES
 CPU TIME [s]                 =                        0.04                 0.05
 ENERGY DRIFT PER ATOM [K]    =          0.229173070878E+00   0.448981947543E+00
 POTENTIAL ENERGY[hartree]    =         -0.156675262057E+02  -0.155471752176E+02
 KINETIC ENERGY [hartree]     =          0.584321471931E+00   0.465942794551E+00
 TEMPERATURE [K]              =                     405.971              323.725
 *******************************************************************************


 ENERGY| Total FORCE_EVAL ( FIST ) energy (a.u.):            -15.669220400813069


 *******************************************************************************
 ENSEMBLE TYPE                =                                              NVT
 STEP NUMBER                  =                                               27
 TIME [fs]                    =                                        27.000000
 CONSERVED QUANTITY [hartree] =                              -0.150800819278E+02

                                              INSTANTANEOUS             AVERAGES
 CPU TIME [s]                 =                        0.04                 0.04
 ENERGY DRIFT PER ATOM [K]    =         -0.454444191284E+00   0.415521720179E+00
 POTENTIAL ENERGY[hartree]    =         -0.156692204008E+02  -0.155516954096E+02
 KINETIC ENERGY [hartree]     =          0.583042017503E+00   0.470279802808E+00
 TEMPERATURE [K]              =                     405.082              326.738
 *******************************************************************************


 ENERGY| Total FORCE_EVAL ( FIST ) energy (a.u.):            -15.657708440476410


 *******************************************************************************
 ENSEMBLE TYPE                =                                              NVT
 STEP NUMBER                  =                                               28
 TIME [fs]                    =                                        28.000000
 CONSERVED QUANTITY [hartree] =                              -0.150805134769E+02

                                              INSTANTANEOUS             AVERAGES
 CPU TIME [s]                 =                        0.02                 0.04
 ENERGY DRIFT PER ATOM [K]    =         -0.901238539188E+00   0.368494568059E+00
 POTENTIAL ENERGY[hartree]    =         -0.156577084405E+02  -0.155554815893E+02
 KINETIC ENERGY [hartree]     =          0.571008038725E+00   0.473877239805E+00
 TEMPERATURE [K]              =                     396.721              329.237
 *******************************************************************************


 ENERGY| Total FORCE_EVAL ( FIST ) energy (a.u.):            -15.627819058438995


 *******************************************************************************
 ENSEMBLE TYPE                =                                              NVT
 STEP NUMBER                  =                                               29
 TIME [fs]                    =                                        29.000000
 CONSERVED QUANTITY [hartree] =                              -0.150795862819E+02

                                              INSTANTANEOUS             AVERAGES
 CPU TIME [s]                 =                        0.02                 0.04
 ENERGY DRIFT PER ATOM [K]    =          0.587112868316E-01   0.357812385948E+00
 POTENTIAL ENERGY[hartree]    =         -0.156278190584E+02  -0.155579759848E+02
 KINETIC ENERGY [hartree]     =          0.540654441795E+00   0.476179901943E+00
 TEMPERATURE [K]              =                     375.632              330.837
 *******************************************************************************


 ENERGY| Total FORCE_EVAL ( FIST ) energy (a.u.):            -15.593885536135790


 *******************************************************************************
 ENSEMBLE TYPE                =                                              NVT
 STEP NUMBER                  =                                               30
 TIME [fs]                    =                                        30.000000
 CONSERVED QUANTITY [hartree] =                              -0.150777282822E+02

                                              INSTANTANEOUS             AVERAGES
 CPU TIME [s]                 =                        0.03                 0.04
 ENERGY DRIFT PER ATOM [K]    =          0.198234799878E+01   0.411963573042E+00
 POTENTIAL ENERGY[hartree]    =         -0.155938855361E+02  -0.155591729698E+02
 KINETIC ENERGY [hartree]     =          0.508733699630E+00   0.477265028532E+00
 TEMPERATURE [K]              =                     353.455              331.591
 *******************************************************************************


 ENERGY| Total FORCE_EVAL ( FIST ) energy (a.u.):            -15.583720552089840


 *******************************************************************************
 ENSEMBLE TYPE                =                                              NVT
 STEP NUMBER                  =                                               31
 TIME [fs]                    =                                        31.000000
 CONSERVED QUANTITY [hartree] =                              -0.150765347765E+02

                                              INSTANTANEOUS             AVERAGES
 CPU TIME [s]                 =                        0.03                 0.04
 ENERGY DRIFT PER ATOM [K]    =          0.321801629961E+01   0.502481402931E+00
 POTENTIAL ENERGY[hartree]    =         -0.155837205521E+02  -0.155599648273E+02
 KINETIC ENERGY [hartree]     =          0.500570738652E+00   0.478016825633E+00
 TEMPERATURE [K]              =                     347.783              332.114
 *******************************************************************************


[...]
 TEMPERATURE [K]              =                     559.354              541.322
 *******************************************************************************


 ENERGY| Total FORCE_EVAL ( FIST ) energy (a.u.):            -16.079107004832540


 *******************************************************************************
 ENSEMBLE TYPE                =                                              NVT
 STEP NUMBER                  =                                              987
 TIME [fs]                    =                                       987.000000
 CONSERVED QUANTITY [hartree] =                              -0.150789439912E+02

                                              INSTANTANEOUS             AVERAGES
 CPU TIME [s]                 =                        0.04                 0.04
 ENERGY DRIFT PER ATOM [K]    =          0.723691917582E+00   0.640903864688E+00
 POTENTIAL ENERGY[hartree]    =         -0.160791070048E+02  -0.159593347278E+02
 KINETIC ENERGY [hartree]     =          0.793549125444E+00   0.779149113529E+00
 TEMPERATURE [K]              =                     551.337              541.332
 *******************************************************************************


 ENERGY| Total FORCE_EVAL ( FIST ) energy (a.u.):            -16.067296208265233


 *******************************************************************************
 ENSEMBLE TYPE                =                                              NVT
 STEP NUMBER                  =                                              988
 TIME [fs]                    =                                       988.000000
 CONSERVED QUANTITY [hartree] =                              -0.150788045756E+02

                                              INSTANTANEOUS             AVERAGES
 CPU TIME [s]                 =                        0.04                 0.04
 ENERGY DRIFT PER ATOM [K]    =          0.868032667401E+00   0.641133752140E+00
 POTENTIAL ENERGY[hartree]    =         -0.160672962083E+02  -0.159594440005E+02
 KINETIC ENERGY [hartree]     =          0.780665720576E+00   0.779150648557E+00
 TEMPERATURE [K]              =                     542.386              541.333
 *******************************************************************************


 ENERGY| Total FORCE_EVAL ( FIST ) energy (a.u.):            -16.056164742137330


 *******************************************************************************
 ENSEMBLE TYPE                =                                              NVT
 STEP NUMBER                  =                                              989
 TIME [fs]                    =                                       989.000000
 CONSERVED QUANTITY [hartree] =                              -0.150787357551E+02

                                              INSTANTANEOUS             AVERAGES
 CPU TIME [s]                 =                        0.05                 0.04
 ENERGY DRIFT PER ATOM [K]    =          0.939284327880E+00   0.641435218849E+00
 POTENTIAL ENERGY[hartree]    =         -0.160561647421E+02  -0.159595417970E+02
 KINETIC ENERGY [hartree]     =          0.767762074033E+00   0.779139133315E+00
 TEMPERATURE [K]              =                     533.421              541.325
 *******************************************************************************


 ENERGY| Total FORCE_EVAL ( FIST ) energy (a.u.):            -16.047096459652124


 *******************************************************************************
 ENSEMBLE TYPE                =                                              NVT
 STEP NUMBER                  =                                              990
 TIME [fs]                    =                                       990.000000
 CONSERVED QUANTITY [hartree] =                              -0.150786184111E+02

                                              INSTANTANEOUS             AVERAGES
 CPU TIME [s]                 =                        0.04                 0.04
 ENERGY DRIFT PER ATOM [K]    =          0.106077368921E+01   0.641858793062E+00
 POTENTIAL ENERGY[hartree]    =         -0.160470964597E+02  -0.159596302361E+02
 KINETIC ENERGY [hartree]     =          0.760083408271E+00   0.779119885108E+00
 TEMPERATURE [K]              =                     528.086              541.312
 *******************************************************************************


 ENERGY| Total FORCE_EVAL ( FIST ) energy (a.u.):            -16.041847996043725


 *******************************************************************************
 ENSEMBLE TYPE                =                                              NVT
 STEP NUMBER                  =                                              991
 TIME [fs]                    =                                       991.000000
 CONSERVED QUANTITY [hartree] =                              -0.150784644431E+02

                                              INSTANTANEOUS             AVERAGES
 CPU TIME [s]                 =                        0.04                 0.04
 ENERGY DRIFT PER ATOM [K]    =          0.122018094964E+01   0.642442367387E+00
 POTENTIAL ENERGY[hartree]    =         -0.160418479960E+02  -0.159597132005E+02
 KINETIC ENERGY [hartree]     =          0.756498813467E+00   0.779097058597E+00
 TEMPERATURE [K]              =                     525.595              541.296
 *******************************************************************************


 ENERGY| Total FORCE_EVAL ( FIST ) energy (a.u.):            -16.042381069850748


 *******************************************************************************
 ENSEMBLE TYPE                =                                              NVT
 STEP NUMBER                  =                                              992
 TIME [fs]                    =                                       992.000000
 CONSERVED QUANTITY [hartree] =                              -0.150784599588E+02

                                              INSTANTANEOUS             AVERAGES
 CPU TIME [s]                 =                        0.04                 0.04
 ENERGY DRIFT PER ATOM [K]    =          0.122482358360E+01   0.643029445226E+00
 POTENTIAL ENERGY[hartree]    =         -0.160423810699E+02  -0.159597965351E+02
 KINETIC ENERGY [hartree]     =          0.757438770742E+00   0.779075225646E+00
 TEMPERATURE [K]              =                     526.249              541.281
 *******************************************************************************


 ENERGY| Total FORCE_EVAL ( FIST ) energy (a.u.):            -16.048738942513985


 *******************************************************************************
 ENSEMBLE TYPE                =                                              NVT
 STEP NUMBER                  =                                              993
 TIME [fs]                    =                                       993.000000
 CONSERVED QUANTITY [hartree] =                              -0.150786436129E+02

                                              INSTANTANEOUS             AVERAGES
 CPU TIME [s]                 =                        0.04                 0.04
 ENERGY DRIFT PER ATOM [K]    =          0.103468162132E+01   0.643423858294E+00
 POTENTIAL ENERGY[hartree]    =         -0.160487389425E+02  -0.159598861045E+02
 KINETIC ENERGY [hartree]     =          0.763245767651E+00   0.779059284601E+00
 TEMPERATURE [K]              =                     530.283              541.270
 *******************************************************************************


 ENERGY| Total FORCE_EVAL ( FIST ) energy (a.u.):            -16.057606956006154


 *******************************************************************************
 ENSEMBLE TYPE                =                                              NVT
 STEP NUMBER                  =                                              994
 TIME [fs]                    =                                       994.000000
 CONSERVED QUANTITY [hartree] =                              -0.150789955262E+02

                                              INSTANTANEOUS             AVERAGES
 CPU TIME [s]                 =                        0.04                 0.04
 ENERGY DRIFT PER ATOM [K]    =          0.670336423655E+00   0.643450933309E+00
 POTENTIAL ENERGY[hartree]    =         -0.160576069560E+02  -0.159599844152E+02
 KINETIC ENERGY [hartree]     =          0.770366649350E+00   0.779050539495E+00
 TEMPERATURE [K]              =                     535.230              541.264
 *******************************************************************************


 ENERGY| Total FORCE_EVAL ( FIST ) energy (a.u.):            -16.063235319705409


 *******************************************************************************
 ENSEMBLE TYPE                =                                              NVT
 STEP NUMBER                  =                                              995
 TIME [fs]                    =                                       995.000000
 CONSERVED QUANTITY [hartree] =                              -0.150792748858E+02

                                              INSTANTANEOUS             AVERAGES
 CPU TIME [s]                 =                        0.04                 0.04
 ENERGY DRIFT PER ATOM [K]    =          0.381107915907E+00   0.643187271985E+00
 POTENTIAL ENERGY[hartree]    =         -0.160632353197E+02  -0.159600881849E+02
 KINETIC ENERGY [hartree]     =          0.775753363992E+00   0.779047225750E+00
 TEMPERATURE [K]              =                     538.973              541.262
 *******************************************************************************


 ENERGY| Total FORCE_EVAL ( FIST ) energy (a.u.):            -16.061247573383799


 *******************************************************************************
 ENSEMBLE TYPE                =                                              NVT
 STEP NUMBER                  =                                              996
 TIME [fs]                    =                                       996.000000
 CONSERVED QUANTITY [hartree] =                              -0.150792744130E+02

                                              INSTANTANEOUS             AVERAGES
 CPU TIME [s]                 =                        0.04                 0.04
 ENERGY DRIFT PER ATOM [K]    =          0.381597466864E+00   0.642924631619E+00
 POTENTIAL ENERGY[hartree]    =         -0.160612475734E+02  -0.159601897506E+02
 KINETIC ENERGY [hartree]     =          0.773036357157E+00   0.779041190742E+00
 TEMPERATURE [K]              =                     537.085              541.257
 *******************************************************************************


 ENERGY| Total FORCE_EVAL ( FIST ) energy (a.u.):            -16.051628270694440


 *******************************************************************************
 ENSEMBLE TYPE                =                                              NVT
 STEP NUMBER                  =                                              997
 TIME [fs]                    =                                       997.000000
 CONSERVED QUANTITY [hartree] =                              -0.150789703488E+02

                                              INSTANTANEOUS             AVERAGES
 CPU TIME [s]                 =                        0.03                 0.04
 ENERGY DRIFT PER ATOM [K]    =          0.696403230680E+00   0.642978271136E+00
 POTENTIAL ENERGY[hartree]    =         -0.160516282707E+02  -0.159602814642E+02
 KINETIC ENERGY [hartree]     =          0.763958148538E+00   0.779026062314E+00
 TEMPERATURE [K]              =                     530.778              541.247
 *******************************************************************************


 ENERGY| Total FORCE_EVAL ( FIST ) energy (a.u.):            -16.038617928696695


 *******************************************************************************
 ENSEMBLE TYPE                =                                              NVT
 STEP NUMBER                  =                                              998
 TIME [fs]                    =                                       998.000000
 CONSERVED QUANTITY [hartree] =                              -0.150786164257E+02

                                              INSTANTANEOUS             AVERAGES
 CPU TIME [s]                 =                        0.04                 0.04
 ENERGY DRIFT PER ATOM [K]    =          0.106282928245E+01   0.643398963532E+00
 POTENTIAL ENERGY[hartree]    =         -0.160386179287E+02  -0.159603599577E+02
 KINETIC ENERGY [hartree]     =          0.751212048451E+00   0.778998192561E+00
 TEMPERATURE [K]              =                     521.922              541.227
 *******************************************************************************


 ENERGY| Total FORCE_EVAL ( FIST ) energy (a.u.):            -16.027288147086882


 *******************************************************************************
 ENSEMBLE TYPE                =                                              NVT
 STEP NUMBER                  =                                              999
 TIME [fs]                    =                                       999.000000
 CONSERVED QUANTITY [hartree] =                              -0.150784409309E+02

                                              INSTANTANEOUS             AVERAGES
 CPU TIME [s]                 =                        0.05                 0.04
 ENERGY DRIFT PER ATOM [K]    =          0.124452377511E+01   0.644000690070E+00
 POTENTIAL ENERGY[hartree]    =         -0.160272881471E+02  -0.159604269529E+02
 KINETIC ENERGY [hartree]     =          0.739948015053E+00   0.778959103294E+00
 TEMPERATURE [K]              =                     514.096              541.200
 *******************************************************************************


 ENERGY| Total FORCE_EVAL ( FIST ) energy (a.u.):            -16.020534655721551


 *******************************************************************************
 ENSEMBLE TYPE                =                                              NVT
 STEP NUMBER                  =                                             1000
 TIME [fs]                    =                                      1000.000000
 CONSERVED QUANTITY [hartree] =                              -0.150784265161E+02

                                              INSTANTANEOUS             AVERAGES
 CPU TIME [s]                 =                        0.05                 0.04
 ENERGY DRIFT PER ATOM [K]    =          0.125944778948E+01   0.644616137170E+00
 POTENTIAL ENERGY[hartree]    =         -0.160205346557E+02  -0.159604870606E+02
 KINETIC ENERGY [hartree]     =          0.733443592650E+00   0.778913587783E+00
 TEMPERATURE [K]              =                     509.577              541.169
 *******************************************************************************


 -------------------------------------------------------------------------------
 -                                                                             -
 -                                DBCSR STATISTICS                             -
 -                                                                             -
 -------------------------------------------------------------------------------
 COUNTER                                    TOTAL       BLAS       SMM       ACC
 flops inhomo. stacks                           0       0.0%      0.0%      0.0%
 flops total                         0.000000E+00       0.0%      0.0%      0.0%
 flops max/rank                      0.000000E+00       0.0%      0.0%      0.0%
 matmuls inhomo. stacks                         0       0.0%      0.0%      0.0%
 matmuls total                                  0       0.0%      0.0%      0.0%
 number of processed stacks                     0       0.0%      0.0%      0.0%
 average stack size                                     0.0       0.0       0.0
 marketing flops                     0.000000E+00
 -------------------------------------------------------------------------------

 MEMORY| Estimated peak process memory [MiB]                                   0

 -------------------------------------------------------------------------------
 -                                                                             -
 -                           R E F E R E N C E S                               -
 -                                                                             -
 -------------------------------------------------------------------------------
 
 CP2K version 6.1, the CP2K developers group (2018).
 CP2K is freely available from https://www.cp2k.org/ .

 Schuett, Ole; Messmer, Peter; Hutter, Juerg; VandeVondele, Joost. 
 Electronic Structure Calculations on Graphics Processing Units, John Wiley & Sons, Ltd, 173-190 (2016). 
 GPU-Accelerated Sparse Matrix-Matrix Multiplication for Linear Scaling Density Functional Theory.
 http://dx.doi.org/10.1002/9781118670712.ch8


 Borstnik, U; VandeVondele, J; Weber, V; Hutter, J. 
 PARALLEL COMPUTING, 40 (5-6), 47-58 (2014). 
 Sparse matrix multiplication: The distributed block-compressed sparse
 row library.
 http://dx.doi.org/10.1016/j.parco.2014.03.012


 Hutter, J; Iannuzzi, M; Schiffmann, F; VandeVondele, J. 
 WILEY INTERDISCIPLINARY REVIEWS-COMPUTATIONAL MOLECULAR SCIENCE, 4 (1), 15-25 (2014). 
 CP2K: atomistic simulations of condensed matter systems.
 http://dx.doi.org/10.1002/wcms.1159


 Bussi, G; Donadio, D; Parrinello, M. 
 JOURNAL OF CHEMICAL PHYSICS, 126 (1), 014101 (2007). 
 Canonical sampling through velocity rescaling.
 http://dx.doi.org/10.1063/1.2408420


 Frigo, M; Johnson, SG. 
 PROCEEDINGS OF THE IEEE, 93 (2), 216-231 (2005). 
 The design and implementation of FFTW3.
 http://dx.doi.org/10.1109/JPROC.2004.840301


 -------------------------------------------------------------------------------
 -                                                                             -
 -                                T I M I N G                                  -
 -                                                                             -
 -------------------------------------------------------------------------------
 SUBROUTINE                       CALLS  ASD         SELF TIME        TOTAL TIME
                                MAXIMUM       AVERAGE  MAXIMUM  AVERAGE  MAXIMUM
 CP2K                                 1  1.0    0.005    0.005   36.769   36.769
 qs_mol_dyn_low                       1  2.0    0.049    0.049   36.722   36.722
 velocity_verlet                   1000  3.0    0.149    0.149   29.737   29.737
 fist_calc_energy_force            1001  4.0    0.054    0.054   29.235   29.235
 force_nonbond                     1001  5.0   28.585   28.585   28.585   28.585
 md_output                         1000  3.0    0.005    0.005    6.783    6.783
 md_write_output                   1001  4.0    4.497    4.497    6.082    6.082
 write_trajectory                  4004  5.0    0.347    0.347    1.562    1.562
 write_particle_coordinates        1001  6.0    1.215    1.215    1.215    1.215
 -------------------------------------------------------------------------------

 The number of warnings for this run is : 4
 
 -------------------------------------------------------------------------------
  **** **** ******  **  PROGRAM ENDED AT                 2020-03-19 18:02:16.775
 ***** ** ***  *** **   PROGRAM RAN ON                         bass-macbook.home
 **    ****   ******    PROGRAM RAN BY                                  bvanbeek
 ***** **    ** ** **   PROGRAM PROCESS ID                                 86020
  **** **  *******  **  PROGRAM STOPPED IN /Users/bvanbeek/Documents/GitHub/qmfl
                                           ows/test/test_files/plams_workdir.008
                                           /cp2k_mm_md
