#     Step Nr.          Time[fs]        Kin.[a.u.]          Temp[K]            Pot.[a.u.]        Cons Qty[a.u.]        UsedTime[s]
         0            0.000000         0.431795272       300.000000000       -15.511438262       -15.079642990         0.000000000
         1            1.000000         0.426910071       296.605890844       -15.506251602       -15.078925235         0.159873000
         2            2.000000         0.427652889       297.121981182       -15.505019053       -15.077968676         0.062780000
         3            3.000000         0.443054634       307.822708483       -15.521341292       -15.078187288         0.039425000
         4            4.000000         0.469874080       326.456154637       -15.551282775       -15.079789030         0.035605000
         5            5.000000         0.488573196       339.447808136       -15.571058530       -15.081339774         0.037228000
         6            6.000000         0.475087519       330.078314810       -15.557718343       -15.081264487         0.035583000
         7            7.000000         0.431898918       300.072010761       -15.512731967       -15.079457146         0.037197000
         8            8.000000         0.384125035       266.879972752       -15.463828493       -15.077439956         0.037277000
         9            9.000000         0.362604305       251.927935952       -15.441512384       -15.076922867         0.037352000
        10           10.000000         0.374047757       259.878545031       -15.453924121       -15.078052138         0.034923000
        11           11.000000         0.402173598       279.419639750       -15.484495885       -15.079442285         0.039395000
        12           12.000000         0.429273297       298.247797788       -15.512468750       -15.079763608         0.043509000
        13           13.000000         0.450128533       312.737467750       -15.532796898       -15.079124229         0.039662000
        14           14.000000         0.471567303       327.632561206       -15.554493115       -15.078798832         0.043531000
        15           15.000000         0.499365428       346.945967566       -15.581995428       -15.079639060         0.042304000
        16           16.000000         0.518654807       360.347720813       -15.602572586       -15.080967477         0.039028000
        17           17.000000         0.512043012       355.754019457       -15.596565465       -15.081243370         0.037324000
        18           18.000000         0.478716673       332.599755489       -15.560484889       -15.079699399         0.039613000
        19           19.000000         0.438623754       304.744249915       -15.517029127       -15.077497988         0.040618000
        20           20.000000         0.421108951       292.575424877       -15.499308386       -15.076475697         0.034929000
        21           21.000000         0.442969256       307.763390351       -15.522874509       -15.077436437         0.051730000
        22           22.000000         0.492581990       342.233013385       -15.573587819       -15.079383181         0.044476000
        23           23.000000         0.540709031       375.670415661       -15.622456724       -15.080586411         0.037194000
        24           24.000000         0.569357657       395.574727645       -15.651051507       -15.080349087         0.038722000
        25           25.000000         0.579089491       402.336149820       -15.662179804       -15.079549475         0.041028000
        26           26.000000         0.584321472       405.971192653       -15.667526206       -15.079421636         0.044267000
        27           27.000000         0.583042018       405.082261363       -15.669220401       -15.080081928         0.037040000
        28           28.000000         0.571008039       396.721369369       -15.657708440       -15.080513477         0.021882000
        29           29.000000         0.540654442       375.632488438       -15.627819058       -15.079586282         0.020939000
        30           30.000000         0.508733700       353.454796209       -15.593885536       -15.077728282         0.026766000
        31           31.000000         0.500570739       347.783385585       -15.583720552       -15.076534776         0.028010000
        32           32.000000         0.533492536       370.656584370       -15.615206635       -15.077154721         0.039047000
        33           33.000000         0.595794645       413.942451580       -15.678677680       -15.079256424         0.042645000
        34           34.000000         0.657197301       456.603402492       -15.742852753       -15.081055203         0.039680000
        35           35.000000         0.693579050       481.880484502       -15.780705809       -15.081309780         0.040352000
        36           36.000000         0.701227923       487.194720629       -15.788238611       -15.080301424         0.037002000
        37           37.000000         0.694438420       482.477552597       -15.780321704       -15.079373461         0.037656000
        38           38.000000         0.683651537       474.983109744       -15.770947817       -15.079328118         0.040345000
        39           39.000000         0.673353169       467.828074370       -15.761100401       -15.079702806         0.035495000
        40           40.000000         0.656689138       456.250344123       -15.745605342       -15.079464469         0.037855000
        41           41.000000         0.640158703       444.765432363       -15.728705017       -15.078332064         0.054707000
        42           42.000000         0.639884843       444.575161522       -15.727517074       -15.077314822         0.040822000
        43           43.000000         0.668420779       464.401179659       -15.757162194       -15.077609447         0.040551000
        44           44.000000         0.722630635       502.064762223       -15.812991945       -15.079292116         0.035541000
        45           45.000000         0.777383508       540.105618337       -15.869598120       -15.081053261         0.053758000
        46           46.000000         0.807557418       561.069657743       -15.900235340       -15.081516819         0.050476000
        47           47.000000         0.806518979       560.348177086       -15.897263301       -15.080563494         0.054320000
        48           48.000000         0.785792680       545.948090219       -15.875207382       -15.079206093         0.048772000
        49           49.000000         0.765766639       532.034523362       -15.855023887       -15.078568415         0.050716000
        50           50.000000         0.756513678       525.605809409       -15.846889700       -15.078786167         0.040895000
        51           51.000000         0.756117031       525.330229498       -15.848134399       -15.079059615         0.037079000
        52           52.000000         0.762899786       530.042708978       -15.854832934       -15.078756022         0.038524000
        53           53.000000         0.781157179       542.727465496       -15.871041024       -15.078285164         0.035813000
        54           54.000000         0.814995302       566.237303925       -15.903687040       -15.078428707         0.037979000
        55           55.000000         0.858989459       596.803287011       -15.950017780       -15.079574841         0.038656000
        56           56.000000         0.901183230       626.118409231       -15.992472540       -15.080947420         0.037351000
        57           57.000000         0.919819688       639.066530243       -16.010471346       -15.081383429         0.038410000
        58           58.000000         0.906169486       629.582728901       -15.997599429       -15.080467791         0.036683000
        59           59.000000         0.877700227       609.803036407       -15.967565612       -15.079011534         0.036880000
        60           60.000000         0.851750926       591.774144777       -15.942497549       -15.078086907         0.035774000
        61           61.000000         0.844616336       586.817219458       -15.935869897       -15.078286817         0.049038000
        62           62.000000         0.854408153       593.620315928       -15.945748230       -15.078914067         0.042631000
        63           63.000000         0.870309727       604.668311333       -15.963459351       -15.079203209         0.039774000
        64           64.000000         0.892252089       619.913287400       -15.984837231       -15.079088604         0.037938000
        65           65.000000         0.918979869       638.483046645       -16.011300345       -15.079102145         0.037555000
        66           66.000000         0.949671615       659.806864667       -16.041283582       -15.079778249         0.037880000
        67           67.000000         0.971301132       674.834484151       -16.064140962       -15.080669886         0.039284000
        68           68.000000         0.975906669       678.034290210       -16.066978538       -15.080845144         0.036108000
        69           69.000000         0.958300225       665.801795579       -16.047741884       -15.079912689         0.038668000
        70           70.000000         0.931209200       646.979664086       -16.020099610       -15.078611147         0.036339000
        71           71.000000         0.914705973       635.513655972       -16.003737535       -15.077935461         0.036663000
        72           72.000000         0.919653514       638.951077381       -16.009253349       -15.078283662         0.036624000
        73           73.000000         0.938641360       652.143333275       -16.031889624       -15.079096421         0.039736000
        74           74.000000         0.965760198       670.984788978       -16.059264109       -15.079622615         0.036986000
        75           75.000000         0.988552313       686.820151092       -16.082862470       -15.079639350         0.042062000
        76           76.000000         1.006622317       699.374714390       -16.101121282       -15.079696700         0.035366000
        77           77.000000         1.018920192       707.918954555       -16.112527804       -15.080066648         0.034967000
        78           78.000000         1.013956782       704.470507958       -16.111172438       -15.080442114         0.036481000
        79           79.000000         0.993132037       690.002022870       -16.091773659       -15.080190884         0.041487000
        80           80.000000         0.959254428       666.464750620       -16.058737700       -15.079134185         0.040650000
        81           81.000000         0.929080849       645.500941431       -16.028433526       -15.077939371         0.052903000
        82           82.000000         0.918047700       637.835399611       -16.019023475       -15.077569714         0.043276000
        83           83.000000         0.934689101       649.397407854       -16.036352963       -15.078240736         0.044447000
        84           84.000000         0.968310572       672.756721754       -16.069959509       -15.079417415         0.042396000
        85           85.000000         1.001475713       695.798989419       -16.102398521       -15.080114616         0.036605000
        86           86.000000         1.020714459       709.165564480       -16.122731217       -15.080164750         0.036698000
        87           87.000000         1.027168794       713.649866444       -16.129586099       -15.080013390         0.038993000
        88           88.000000         1.023840970       711.337781986       -16.124694665       -15.080073827         0.036973000
        89           89.000000         1.006607604       699.364492209       -16.107235532       -15.080133957         0.038881000
        90           90.000000         0.976482460       678.434334728       -16.076837378       -15.079710608         0.036471000
        91           91.000000         0.941107537       653.856767973       -16.040789560       -15.078670597         0.037082000
        92           92.000000         0.914964338       635.693160785       -16.015221164       -15.077643935         0.037844000
        93           93.000000         0.913269668       634.515749121       -16.015590415       -15.077501579         0.035765000
        94           94.000000         0.937403163       651.283066504       -16.043654738       -15.078560553         0.037337000
        95           95.000000         0.974677466       677.180272282       -16.083773710       -15.080020441         0.043086000
        96           96.000000         1.005809947       698.810301053       -16.113970162       -15.080866413         0.045915000
        97           97.000000         1.011751437       702.938292071       -16.121015350       -15.080713399         0.043574000
        98           98.000000         0.997703534       693.178178358       -16.106724598       -15.080031781         0.040988000
        99           99.000000         0.971990466       675.313414915       -16.080893070       -15.079559868         0.061589000
       100          100.000000         0.941551956       654.165538576       -16.050598361       -15.079469391         0.044546000
       101          101.000000         0.909252969       631.725052167       -16.017606893       -15.079218067         0.059649000
       102          102.000000         0.878313380       610.229039296       -15.985824637       -15.078413052         0.033413000
       103          103.000000         0.859643713       597.257845222       -15.967258845       -15.077466087         0.045858000
       104          104.000000         0.868201558       603.203611092       -15.976015436       -15.077262342         0.039829000
       105          105.000000         0.907357144       630.407882328       -16.014551368       -15.078367094         0.038873000
       106          106.000000         0.955935668       664.158963574       -16.066109364       -15.080130704         0.035899000
       107          107.000000         0.990616704       688.254435559       -16.104091197       -15.081286588         0.036232000
       108          108.000000         0.999020298       694.093031792       -16.111008071       -15.081039613         0.042009000
       109          109.000000         0.978309280       679.703560585       -16.089942110       -15.079901216         0.037578000
       110          110.000000         0.948234405       658.808328502       -16.058143108       -15.078968791         0.035053000
       111          111.000000         0.923118174       641.358231728       -16.030160574       -15.078808370         0.039940000
       112          112.000000         0.901445102       626.300351611       -16.008433997       -15.079102981         0.036085000
       113          113.000000         0.882893353       613.411084301       -15.989147602       -15.078930573         0.035648000
       114          114.000000         0.867343343       602.607346096       -15.974957573       -15.078197872         0.036124000
       115          115.000000         0.871464905       605.470898812       -15.976945381       -15.077689362         0.033265000
       116          116.000000         0.893411847       620.719056712       -16.002335410       -15.078292402         0.035900000
       117          117.000000         0.928582661       645.154813684       -16.041240304       -15.079863273         0.042719000
       118          118.000000         0.955669278       663.973882628       -16.069473170       -15.081189461         0.034850000
       119          119.000000         0.951965964       661.400917464       -16.067122931       -15.081108678         0.031285000
       120          120.000000         0.923218250       641.427762018       -16.036153842       -15.079669250         0.036128000
       121          121.000000         0.885294455       615.079306389       -15.998651371       -15.078177689         0.055285000
       122          122.000000         0.864143181       600.383957498       -15.977079831       -15.077866213         0.036353000
       123          123.000000         0.863012573       599.598441120       -15.976480892       -15.078627039         0.044604000
       124          124.000000         0.870459627       604.772458459       -15.985553667       -15.079386703         0.044719000
       125          125.000000         0.876655955       609.077503978       -15.993240679       -15.079254758         0.041954000
       126          126.000000         0.885073093       614.925510215       -16.001446845       -15.078580233         0.034784000
       127          127.000000         0.901948437       626.650055278       -16.019542239       -15.078517319         0.036639000
       128          128.000000         0.927743882       644.572052213       -16.047941868       -15.079592329         0.041851000
       129          129.000000         0.948053920       658.682932452       -16.070617076       -15.080971413         0.045428000
       130          130.000000         0.942101521       654.547362453       -16.067259565       -15.081215346         0.046134000
       131          131.000000         0.910680989       632.717202918       -16.034289401       -15.079902186         0.040041000
       132          132.000000         0.870097876       604.521123412       -15.991462007       -15.078074905         0.042856000
       133          133.000000         0.844520189       586.750418748       -15.966371147       -15.077277200         0.035518000
       134          134.000000         0.846488524       588.117966106       -15.971104714       -15.078106512         0.033856000
       135          135.000000         0.866178112       601.797773942       -15.993443225       -15.079586050         0.034822000
       136          136.000000         0.882501837       613.139068793       -16.011284952       -15.080294522         0.038161000
       137          137.000000         0.886096672       615.636666096       -16.014187224       -15.079777152         0.038259000
       138          138.000000         0.881289050       612.296456562       -16.009678512       -15.078980327         0.040063000
       139          139.000000         0.880970380       612.075052734       -16.009215891       -15.079033734         0.040895000
       140          140.000000         0.881632890       612.535347701       -16.011653412       -15.079945564         0.041331000
       141          141.000000         0.873627267       606.973251093       -16.003605720       -15.080521165         0.052673000
       142          142.000000         0.848347712       589.409681060       -15.976862370       -15.079768840         0.031436000
       143          143.000000         0.817130379       567.720699015       -15.943087807       -15.078087136         0.036525000
       144          144.000000         0.801241158       556.681286258       -15.927501962       -15.077021919         0.034003000
       145          145.000000         0.818545786       568.704086586       -15.945878333       -15.077705625         0.046358000
       146          146.000000         0.857379250       595.684556277       -15.988159096       -15.079545504         0.040921000
       147          147.000000         0.895292411       622.025623239       -16.026267323       -15.080996676         0.036426000
       148          148.000000         0.906420814       629.757345096       -16.038059055       -15.080952683         0.044377000
       149          149.000000         0.891656423       619.499434899       -16.023880330       -15.079846112         0.048229000
       150          150.000000         0.869425839       604.054209633       -16.000158995       -15.078979539         0.043886000
       151          151.000000         0.850642710       591.004185135       -15.979806535       -15.079150764         0.041493000
       152          152.000000         0.832046618       578.084109700       -15.961075823       -15.079733047         0.046883000
       153          153.000000         0.806904810       560.616242945       -15.936075482       -15.079592605         0.071661000
       154          154.000000         0.778941358       541.187971307       -15.907373309       -15.078458943         0.050735000
       155          155.000000         0.764427189       531.103908294       -15.891888814       -15.077357863         0.052159000
       156          156.000000         0.778123273       540.619587355       -15.905794609       -15.077600796         0.048991000
       157          157.000000         0.817150730       567.734838315       -15.945556717       -15.079208814         0.046522000
       158          158.000000         0.858229209       596.275085192       -15.986358811       -15.080987269         0.041956000
       159          159.000000         0.873506740       606.889512308       -16.001135182       -15.081393369         0.040018000
       160          160.000000         0.857709027       595.913676660       -15.982995087       -15.080293959         0.038495000
       161          161.000000         0.823787063       572.345587939       -15.948369018       -15.078832970         0.057512000
       162          162.000000         0.793972890       551.631484703       -15.919482669       -15.078253769         0.052744000
       163          163.000000         0.777388750       540.109260364       -15.905391812       -15.078684412         0.042848000
       164          164.000000         0.772174689       536.486668082       -15.900175817       -15.079182200         0.040273000
       165          165.000000         0.769809643       534.843495983       -15.897357745       -15.078879097         0.043028000
       166          166.000000         0.775623232       538.882624579       -15.901803005       -15.078125403         0.053686000
       167          167.000000         0.798731207       554.937438089       -15.924218014       -15.078051847         0.042792000
       168          168.000000         0.837316441       581.745443835       -15.964696569       -15.079258669         0.036546000
       169          169.000000         0.875363786       608.179738719       -16.004890149       -15.080943626         0.162596000
       170          170.000000         0.889691903       618.134537553       -16.019686524       -15.081557658         0.044005000
       171          171.000000         0.869672005       604.225238862       -15.998985282       -15.080631923         0.039745000
       172          172.000000         0.828875155       575.880660567       -15.956417251       -15.078913012         0.054641000
       173          173.000000         0.791532561       549.936008576       -15.917879495       -15.077819785         0.044830000
       174          174.000000         0.775852352       539.041811315       -15.900057310       -15.077931595         0.042536000
       175          175.000000         0.777806740       540.399668999       -15.901291388       -15.078686382         0.057132000
       176          176.000000         0.786522318       546.455023391       -15.910301468       -15.079067337         0.044807000
       177          177.000000         0.797741339       554.249703651       -15.921274442       -15.078803285         0.044288000
       178          178.000000         0.814446057       565.855702856       -15.938062190       -15.078581677         0.041427000
       179          179.000000         0.840639622       584.054302702       -15.963644901       -15.079173104         0.038554000
       180          180.000000         0.865021034       600.993866512       -15.988737647       -15.080362120         0.044249000
       181          181.000000         0.869492077       604.100229563       -15.995217556       -15.081088433         0.055151000
       182          182.000000         0.847806838       589.033896383       -15.972463323       -15.080456990         0.044428000
       183          183.000000         0.805820239       559.862711120       -15.929799126       -15.078892903         0.041795000
       184          184.000000         0.767768086       533.425076286       -15.890917228       -15.077602914         0.044880000
       185          185.000000         0.752072196       522.519984345       -15.875377856       -15.077548779         0.037068000
       186          186.000000         0.760801700       528.585013930       -15.884315643       -15.078483204         0.037338000
       187          187.000000         0.780423675       542.217846340       -15.903939013       -15.079288410         0.040406000
       188          188.000000         0.796621339       553.471557298       -15.921491969       -15.079392080         0.039835000
       189          189.000000         0.810659755       563.225079838       -15.935023745       -15.079113514         0.037189000
       190          190.000000         0.824867634       573.096340602       -15.948344938       -15.079193406         0.040580000
       191          191.000000         0.835225975       580.293043391       -15.959851034       -15.079833963         0.036473000
       192          192.000000         0.835244152       580.305672025       -15.959623245       -15.080383623         0.035416000
       193          193.000000         0.816878844       567.545938857       -15.939777569       -15.080007185         0.033900000
       194          194.000000         0.781901746       543.244771515       -15.906518030       -15.078782665         0.036698000
       195          195.000000         0.756200459       525.388192683       -15.878894387       -15.077642616         0.040661000
       196          196.000000         0.752256572       522.648084289       -15.874328039       -15.077577709         0.042130000
       197          197.000000         0.770995545       535.667429566       -15.894025732       -15.078518284         0.038821000
       198          198.000000         0.798792157       554.979784551       -15.923681347       -15.079603531         0.039624000
       199          199.000000         0.821708602       570.901528113       -15.946959967       -15.079982627         0.043973000
       200          200.000000         0.831955344       578.020694793       -15.957957593       -15.079717783         0.038278000
       201          201.000000         0.834645698       579.889882251       -15.960753990       -15.079428099         0.052368000
       202          202.000000         0.833785876       579.292500503       -15.959513293       -15.079592288         0.049996000
       203          203.000000         0.824016435       572.504949897       -15.951672656       -15.079879166         0.050347000
       204          204.000000         0.805923555       559.934492336       -15.933102774       -15.079620235         0.044804000
       205          205.000000         0.781782301       543.161784135       -15.908046318       -15.078711147         0.034962000
       206          206.000000         0.765649484       531.953126826       -15.890421606       -15.077854157         0.035060000
       207          207.000000         0.768268583       533.772808192       -15.893355560       -15.077899597         0.053088000
       208          208.000000         0.789526500       548.542249506       -15.916203898       -15.078912272         0.044467000
       209          209.000000         0.816361817       567.186722442       -15.943420692       -15.080102685         0.067001000
       210          210.000000         0.829152585       576.073411290       -15.957090443       -15.080462353         0.037130000
       211          211.000000         0.825263019       573.371043469       -15.951260655       -15.079889095         0.037027000
       212          212.000000         0.807660113       561.141007185       -15.933730821       -15.079138151         0.033663000
       213          213.000000         0.789255348       548.353860258       -15.915483689       -15.078861015         0.041336000
       214          214.000000         0.775536747       538.822537653       -15.900816277       -15.079040693         0.033643000
       215          215.000000         0.762579784       529.820379853       -15.887827514       -15.079011830         0.036273000
       216          216.000000         0.752390970       522.741460157       -15.877449052       -15.078432585         0.036731000
       217          217.000000         0.751979699       522.455719859       -15.877796133       -15.077856464         0.036526000
       218          218.000000         0.770961552       535.643812059       -15.896529780       -15.078065217         0.037200000
       219          219.000000         0.803370381       558.160614212       -15.929598044       -15.079188908         0.033624000
       220          220.000000         0.831262973       577.539653658       -15.959664412       -15.080435446         0.045952000
       221          221.000000         0.839254309       583.091823833       -15.968207640       -15.080773028         0.118928000
       222          222.000000         0.822076621       571.157217818       -15.950197858       -15.080021348         0.036102000
       223          223.000000         0.787777906       547.327372614       -15.917168351       -15.078885752         0.046137000
       224          224.000000         0.757165978       526.059010046       -15.886354117       -15.078255355         0.039715000
       225          225.000000         0.738837622       513.324950622       -15.867366443       -15.078345704         0.033870000
       226          226.000000         0.729461204       506.810462002       -15.859560371       -15.078506956         0.044823000
       227          227.000000         0.730746303       507.703315030       -15.860379968       -15.078340181         0.034874000